==================================================================================
It's Thu Jan 12 15:59:17 GMT 2023.
*** Starting onetep_launcher (node red377.cluster.local, PIDs 50900 50901)...
    - ONETEP arguments: sc05_protonated_shifted.dat
    - Current directory: /home/hpc/benchmarks-2022/ONETEP/data_input/4_nodes/testcase2
    - Launcher executable directory: /mainfs/home/hpc/benchmarks-2022/ONETEP/source/utils
    - (-e) ONETEP executable specified through command-line: /home/hpc/benchmarks-2022/ONETEP/source/bin/onetep.iridis5.intel21.omp.scalapack
      ... trying /home/hpc/benchmarks-2022/ONETEP/source/bin/onetep.iridis5.intel21.omp.scalapack
          -> looks OK
*** Setting up environment...
    - (-s) Process stack size: unlimited
    - (-t) OMP_NUM_THREADS: 20
    - (-o) OMP_STACKSIZE: 64M
    - (-c) Maximum core file size: 2048000
    - (-d) decfort_dump_flag: n
    - (-m) I_MPI_OFA_TRANSLATION_CACHE: 0
    - (-m) I_MPI_DAPL_TRANSLATION_CACHE: 0
    - (-m) I_MPI_DAPL_UD_TRANSLATION_CACHE: 0
*** Starting ONETEP...
    - /home/hpc/benchmarks-2022/ONETEP/source/bin/onetep.iridis5.intel21.omp.scalapack sc05_protonated_shifted.dat
=================================================================================
_________________________________________________________________________________
[0] MPI startup(): I_MPI_DAPL_UD_TRANSLATION_CACHE variable has been removed from the product, its value is ignored

[0] MPI startup(): I_MPI_OFA_TRANSLATION_CACHE variable has been removed from the product, its value is ignored

[0] MPI startup(): I_MPI_DAPL_TRANSLATION_CACHE variable has been removed from the product, its value is ignored

 +---------------------------------------------------------------+
 |                                                               |
 |        ####### #     # ####### ####### ####### ######         |
 |        #     # ##    # #          #    #       #     #        |
 |        #     # # #   # #          #    #       #     #        |
 |        #     # #  #  # #####      #    #####   ######         |
 |        #     # #   # # #          #    #       #              |
 |        #     # #    ## #          #    #       #              |
 |        ####### #     # #######    #    ####### #              |
 |                                                               |
 |        Linear-Scaling Ab Initio Total Energy Program          |
 |                                                               |
 |          Release for academic collaborators of ODG            |
 |                                             Version 6.1.12.0  |
 |                                                               |
 +---------------------------------------------------------------+
 |                                                               |
 |  Authors:                                                     |
 |  Jacek Dziedzic, Peter D. Haynes, Nicholas D. M. Hine,        |
 |  Arash A. Mostofi, Mike C. Payne and Chris-Kriton Skylaris    |
 |                                                               |
 |  Contributors:                                                |
 |  J. Aarons, L. Andrinopoulos, P. W. Avraam, R. A. Bell,       |
 |  A. Bhandari, G. A. Bramley, R. J. Charlton, S. J. Clark,     |
 |  R. J. Clements, G. C. Constantinescu, F. Corsetti,           |
 |  N. Corsini, O. Dieguez, S. M. M. Dubois, K. K. B. Duff,      |
 |  J. M. Escartin, A. Greco, H. Helal, Q. O. Hill, L. P. Lee,   |
 |  J.-H. Li, E. B. Linscott, G. Moynihan, D. D. O`Regan,        |
 |  O. K. Okan, M. J. S. Phipps, C. J. Pickard,                  |
 |  J. C. A. Prentice, M. I. J. Probert, L. E. Ratcliff,         |
 |  M. Robinson, A. Ruiz Serrano, J. S. Spencer, E. W. Tait,     |
 |  G. Teobaldi, D. Turban, V. Vitale, K. A. Wilkinson,          |
 |  C. Weber, J. C. Womack, N. Yeung and T. J. Zuehlsdorff       |
 |                                                               |
 |                                   Copyright (c) 2004-2023     |
 |                                                               |
 |  Please cite:                                                 |
 |  "The ONETEP linear-scaling density functional theory program"|
 |   J. Chem. Phys. 152(17) 174111 (2020)                        |
 |                                                               |
 |          in all publications arising from your use of ONETEP. |
 |                                                               |
 +---------------------------------------------------------------+
 |                                                               |
 |   ONETEP is based on developments described in the following  |
 |   publications:                                               |
 |                                                               |
 |  "Nonorthogonal generalized Wannier function pseudopotential  |
 |   plane-wave method".                                         |
 |   C.-K. Skylaris, A. A. Mostofi, P. D. Haynes, O. Dieguez,    |
 |   M. C. Payne.                                                |
 |   Phys. Rev. B 66 035119 (2002).                              |
 |                                                               |
 |  "Preconditioned iterative minimization for linear-scaling    |
 |   electronic structure calculations".                         |
 |   A. A. Mostofi, P. D. Haynes, C.-K. Skylaris, M. C. Payne.   |
 |   J. Chem. Phys. 119(17), pp.8842-8848 (2003).                |
 |                                                               |
 |  "Total-energy calculations on a real space grid with         |
 |   localized functions and a plane-wave basis".                |
 |   A. A. Mostofi, C.-K. Skylaris, P. D. Haynes, M. C. Payne.   |
 |   Comput. Phys. Commun. 147, pp.788-802 (2002).               |
 |                                                               |
 |  "Accurate kinetic energy evaluation in electronic structure  |
 |   calculations with localized functions on real space grids"  |
 |   C.-K. Skylaris, A. A. Mostofi, P. D. Haynes, C. J. Pickard, |
 |   M. C. Payne.                                                |
 |   Comput. Phys. Commun. 140, pp.315-322 (2001).               |
 |                                                               |
 |  "Accurate ionic forces and geometry optimization in linear-  |
 |   scaling density-functional theory with local orbitals"      |
 |   N. D. M. Hine, M. Robinson, P. D. Haynes, C.-K. Skylaris,   |
 |   M. C. Payne, and A. A. Mostofi.                             |
 |   Phys. Rev. B 83 195102 (2011).                              |
 |                                                               |
 +---------------------------------------------------------------+

Job started: 12-01-2023 15:59 (-0000)
 
Reading parameters from file "sc05_protonated_shifted.dat" ...

WARNING: "cutoff_energy" not specified, but "psinc_spacing" specified.
         Using the latter to set the KE cutoff energy to  826.82697eV,
         thus *overriding* the default.

... done

If your calculation crashes here, before "Checking processes and threads..."
is displayed, then your stack size is insufficient.
If so, use "ulimit -s unlimited" at runtime.
You can disable this check with "check_stack_size F".

Checking processes and threads...
   Determining the default number of threads...
      No default threads set at compilation time: defaulting to 1.
      OpenMP library call suggests 20 threads.
      Hybrid MPI-OpenMP compilation detected.
      Number of MPI processes > 1.
      OMP_NUM_THREADS environment variable present and
      its value matches the one obtained from the OpenMP library call.
      Using this value as default.
      Default threads: 20
      Default applies to threads_max and threads_num_fftboxes.
      Settings in the input file override this default.
   ... done

   Running with 8 MPI processes.
   There are 2 MPI processes running on the same node as the root process.
   Each MPI process is using: 
               1 threads for simulation cell FFTs.
               1 threads for parallel FFT box operations.
               5 threads for loops over batched FFT box operations.
              20 threads in other parallel regions.
... done

Basic input checks...
BC: +++++++++++++++ Summary of boundary conditions ++++++++++++++
BC: |       Component       |     Keyword     |   Periodicity   |
BC: |                       |                 |     X  Y  Z [1] |
BC: |-----------------------------------------------------------|
BC: | Ion-ion               | ion_ion_bc [2]  |     P  P  P     |
BC: | Local pseudopotential | pspot_bc [3]    |     P  P  P     |
BC: | Hartree-Fock exchange | hfx_bc          |     P  P  P     |
BC: | Van der Waals         | vdw_bc          |     P  P  P     |
BC: +++++++++++++++++++++++++++++++++++++++++++++++++++++++++++++
BC: P: Periodic, O: Open.
BC: [1] Not strictly along X, Y, Z but rather along lattice vectors A1, A2, A3.
BC: [2] Also affected by: pbc_correction_cutoff, cutoff_coulomb_type,
BC:     is_smeared_ion_rep, is_implicit_solvent, openbc_ion_ion.
BC: [3] Also affected by: is_smeared_ion_rep, is_implicit_solvent, openbc_pspot.

WARNING: The number of FFT boxes in a batch is not a multiple of the number of
OpenMP threads. Consider changing fftbox_batch_size.
... done

Reading geometry and species blocks from file "sc05_protonated_shifted.dat" ...
  <species_atomic_set> block not found: NGWF initialisation set to SOLVE
    
  PSINC grid spacing along a1 set to   0.500000000000a0 from input file.
  PSINC grid spacing along a2 set to   0.500000000000a0 from input file.
  PSINC grid spacing along a3 set to   0.500000000000a0 from input file.
  Number of PPD points along a1 set to 5 from input file.
  Number of PPD points along a2 set to 5 from input file.
  Number of PPD points along a3 set to 5 from input file.
... done


--------------------------------------------------------------------------------
---------------------------------- INPUT FILE ----------------------------------
--------------------------------------------------------------------------------

THREADS_NUM_FFTBOXES 5                                                          
charge +12                                                                      
hfx_memory_limit 50000                                                          
ppd_npoints 5 5 5                                                               
timings_level 3                                                                 
%block swri                                                                     
for_hfx 3 12 V 12 12 E2                                                         
%endblock swri                                                                  
%block species_swri-for_hfx                                                     
N                                                                               
H                                                                               
C                                                                               
O                                                                               
S                                                                               
%endblock species_swri-for_hfx                                                  
hfx_use_ri for_hfx                                                              
hfx_max_l 3                                                                     
hfx_max_q 12                                                                    
hfx_metric ELECTROSTATIC                                                        
hfx_cutoff 20.0 bohr                                                            
ngwf_threshold_orig : 0.000002                                                  
kernel_cutoff : 50.0                                                            
elec_cg_max 0                                                                   
occ_mix 1.0                                                                     
xc_functional B3LYP                                                             
dispersion 1                                                                    
minit_lnv 8                                                                     
maxit_lnv 8                                                                     
maxit_ngwf_cg 1                                                                 
output_detail VERBOSE                                                           
do_properties F                                                                 
cube_format F                                                                   
write_denskern F                                                                
write_tightbox_ngwfs F                                                          
write_density_plot F                                                            
lumo_dens_plot -1                                                               
homo_dens_plot -1                                                               
%block species                                                                  
N   N   7 4 8.0                                                                 
H   H   1 1 8.0                                                                 
C   C   6 4 8.0                                                                 
S   S  16 4 8.0                                                                 
O   O   8 4 8.0                                                                 
%endblock species                                                               
%block species_pot                                                              
N   N_00.recpot                                                                 
H   H_04.recpot                                                                 
C   C_01.recpot                                                                 
S   S_00.recpot                                                                 
O   O_02.recpot                                                                 
%endblock species_pot                                                           
%block lattice_cart                                                             
70.000   0.000   0.000                                                          
0.000  70.000   0.000                                                           
0.000   0.000  70.000                                                           
%endblock lattice_cart                                                          
%block positions_abs                                                            
     Hash =   000000598578562997381262
%endblock positions_abs                                                         
psinc_spacing 0.5 0.5 0.5                                                       

--------------------------------------------------------------------------------
-------------------------------- END INPUT FILE --------------------------------
--------------------------------------------------------------------------------


 
 ESDF WARNING(1): "kernelcutoff" (esdf_physical) has no units. Assume "bohr".
<<<<<<<<<<<<<<<<<<<<<<<<<<<<<<<<< Full system >>>>>>>>>>>>>>>>>>>>>>>>>>>>>>>>>>
<<<<<<<<<<<<<<<<<<<<<<<<< Pseudopotential information >>>>>>>>>>>>>>>>>>>>>>>>>>
File: N_00.recpot [ 2001 points up to Gmax=  52.9 (1/bohr)]
  Atomic number:  7;  ionic charge:  5.000000
    Shell 1: l = 0; rc = 1.48 bohr
File: C_01.recpot [ 2001 points up to Gmax=  52.9 (1/bohr)]
  Atomic number:  6;  ionic charge:  4.000000
    Shell 1: l = 0; rc = 1.48 bohr
File: O_02.recpot [ 2001 points up to Gmax=  52.9 (1/bohr)]
  Atomic number:  8;  ionic charge:  6.000000
    Shell 1: l = 0; rc = 1.31 bohr
File: H_04.recpot [ 2001 points up to Gmax=  52.9 (1/bohr)]
  Atomic number:  1;  ionic charge:  1.000000
    Local potential
File: S_00.recpot [ 2001 points up to Gmax=  52.9 (1/bohr)]
  Atomic number: 16;  ionic charge:  6.000000
    Shell 1: l = 0; rc = 1.90 bohr
    Shell 2: l = 2; rc = 1.84 bohr
<<<<<<<<<<<<<<<<<<<<<<<<<<<<<<<<<<<<<<<<>>>>>>>>>>>>>>>>>>>>>>>>>>>>>>>>>>>>>>>>

-------------------------- Atom counting information ---------------------------
Symbol    Natoms    Nngwfs    Nprojs
  N         20        80        20
  C         92       368        92
  O         21        84        21
  H        178       178         0
  S          1         4         6
.......   ......    ......    ......
Totals:    312       714       139
--------------------------------------------------------------------------------

=============================== PSINC grid sizes ===============================
                      Simulation cell:  140 x 140 x 140
                              FFT-box:  105 x 105 x 105
                                  PPD:    5 x   5 x   5
Grid space d1=  0.500000000000a0 (KE cutoff=  30.38533Eh = 826.82697eV)
Grid space d2=  0.500000000000a0 (KE cutoff=  30.38533Eh = 826.82697eV)
Grid space d3=  0.500000000000a0 (KE cutoff=  30.38533Eh = 826.82697eV)
================================================================================

********************* Fourier parallelisation information **********************
       Coarse grid (whole simulation cell) dimensions:    140   140   140
          Real-space ('12') slabs/proc (min max mean):     17    18    17
         Recip-space ('23') slabs/proc (min max mean):      8     9     8
********************************************************************************

********************* Fourier parallelisation information **********************
       Double grid (whole simulation cell) dimensions:    280   280   280
          Real-space ('12') slabs/proc (min max mean):     35    35    35
         Recip-space ('23') slabs/proc (min max mean):     17    18    17
********************************************************************************

Atom SCF Calculation for N  : Z (AE atom) =   7 : Z (PS atom) =   5
Config String:
Orbitals (num,occ):  2     2.00 3.00
Orbitals   (num,l):  2        0    1
Real-space Grid (nr,dr,rmax): 1223    0.0065466448    8.0000000000
Spherical Bessel Basis (nsws,lmax,cutoff):   48    1  182.3119948938
Confining potential (l,width,scale):  0    3.0000000000  100.0000000000
Confining potential (l,width,scale):  1    3.0000000000  100.0000000000
  1         -4.6325111195   -2.8733018997    7.0523823883   -1.5654639872
  2         -9.7351620650   -1.6022876474    8.2041073874   -1.8094347699
  3         -9.1003439584   -1.8391229933    7.9485113934   -1.7614559139
  4         -9.3105491824   -1.7985182208    7.9916936238   -1.7725794173
  5         -9.2745062116   -1.8141195512    7.9751056135   -1.7698643035
  6         -9.2766693537   -1.8160424936    7.9730912778   -1.7698346295
  7         -9.2771890287   -1.8168588199    7.9722363740   -1.7698217193
  8         -9.2774441157   -1.8173439088    7.9717288568   -1.7698189384
  9         -9.2775615513   -1.8176324342    7.9714272792   -1.7698202193
 10         -9.2776100777   -1.8178040922    7.9712480301   -1.7698227873
 11         -9.2776257384   -1.8179062304    7.9711414823   -1.7698254390
 12         -9.2776268797   -1.8179670086    7.9710781467   -1.7698277197
 13         -9.2776224934   -1.8180031787    7.9710404960   -1.7698295176
 14         -9.2776167424   -1.8180247066    7.9710181127   -1.7698308644
 15         -9.2776124450   -1.8180349585    7.9710074662   -1.7698316448
 16         -9.2776087651   -1.8180418916    7.9710002727   -1.7698322427
 17         -9.2776057370   -1.8180465807    7.9709954119   -1.7698326962
 18         -9.2776033130   -1.8180497523    7.9709921273   -1.7698330377
 19         -9.2776014115   -1.8180518977    7.9709899076   -1.7698332930
 20         -9.2775999425   -1.8180533490    7.9709884075   -1.7698334828
 21         -9.2775988213   -1.8180543309    7.9709873937   -1.7698336233
 22         -9.2775979740   -1.8180549952    7.9709867086   -1.7698337269
 23         -9.2775973387   -1.8180554447    7.9709862455   -1.7698338029
 24         -9.2775968657   -1.8180557488    7.9709859325   -1.7698338586
 25         -9.2775965154   -1.8180559547    7.9709857209   -1.7698338992
 26         -9.2775962574   -1.8180560939    7.9709855779   -1.7698339288
 27         -9.2775960680   -1.8180561882    7.9709854812   -1.7698339503
 28         -9.2775959296   -1.8180562520    7.9709854159   -1.7698339659
 29         -9.2775958288   -1.8180562952    7.9709853717   -1.7698339771
 30         -9.2775957555   -1.8180563245    7.9709853418   -1.7698339853
Atom SCF converged after  30 iterations to a total energy of     -9.27759576

Atom SCF Calculation for H  : Z (AE atom) =   1 : Z (PS atom) =   1
Config String:
Orbitals (num,occ):  1     1.00
Orbitals   (num,l):  1        0
Real-space Grid (nr,dr,rmax): 1223    0.0065466448    8.0000000000
Spherical Bessel Basis (nsws,lmax,cutoff):   48    0  182.3119948938
Confining potential (l,width,scale):  0    3.0000000000  100.0000000000
  1         -0.3079178597   -0.1847795862    0.2820952955   -0.1977712839
  2         -0.3685885669   -0.1881372068    0.2800585157   -0.1985632125
  3         -0.3972300880   -0.1884802289    0.2798203946   -0.1998878419
  4         -0.4080696630   -0.1888188926    0.2794872670   -0.2003448885
  5         -0.4121177049   -0.1890445535    0.2792475482   -0.2004731994
  6         -0.4136579283   -0.1891622112    0.2791189072   -0.2005066289
  7         -0.4142565085   -0.1892168764    0.2790583097   -0.2005150560
  8         -0.4144930541   -0.1892408136    0.2790315799   -0.2005171566
  9         -0.4145876168   -0.1892509625    0.2790202004   -0.2005176839
 10         -0.4146257028   -0.1892551880    0.2790154514   -0.2005178202
 11         -0.4146411140   -0.1892569291    0.2790134918   -0.2005178575
 12         -0.4146473678   -0.1892576422    0.2790126886   -0.2005178687
 13         -0.4146499099   -0.1892579333    0.2790123606   -0.2005178725
 14         -0.4146509445   -0.1892580519    0.2790122269   -0.2005178739
 15         -0.4146513657   -0.1892581001    0.2790121725   -0.2005178744
 16         -0.4146515373   -0.1892581197    0.2790121504   -0.2005178747
 17         -0.4146516073   -0.1892581277    0.2790121414   -0.2005178748
Atom SCF converged after  17 iterations to a total energy of     -0.41465161

Atom SCF Calculation for C  : Z (AE atom) =   6 : Z (PS atom) =   4
Config String:
Orbitals (num,occ):  2     2.00 2.00
Orbitals   (num,l):  2        0    1
Real-space Grid (nr,dr,rmax): 1223    0.0065466448    8.0000000000
Spherical Bessel Basis (nsws,lmax,cutoff):   48    1  182.3119948938
Confining potential (l,width,scale):  0    3.0000000000  100.0000000000
Confining potential (l,width,scale):  1    3.0000000000  100.0000000000
  1         -5.4068284531   -0.9645008545    4.5135247285   -1.1733979228
  2         -5.0358899914   -1.1382877612    4.3226829410   -1.1289974960
  3         -5.1282560308   -1.1377295682    4.3231957437   -1.1311794228
  4         -5.1305167959   -1.1442952602    4.3160990229   -1.1302854828
  5         -5.1333795592   -1.1469546992    4.3132219447   -1.1300656900
  6         -5.1347137429   -1.1482342939    4.3118371412   -1.1299954135
  7         -5.1352377904   -1.1488715133    4.3111475261   -1.1299732413
  8         -5.1354162605   -1.1491900883    4.3108028311   -1.1299682784
  9         -5.1354602641   -1.1493491753    4.3106307680   -1.1299690189
 10         -5.1354578606   -1.1494284919    4.3105450284   -1.1299711304
 11         -5.1354434307   -1.1494679812    4.3105023700   -1.1299731343
 12         -5.1354319014   -1.1494836903    4.3104854139   -1.1299743497
 13         -5.1354224754   -1.1494930733    4.3104752921   -1.1299752605
 14         -5.1354152222   -1.1494986751    4.3104692533   -1.1299759225
 15         -5.1354098529   -1.1495020176    4.3104656526   -1.1299763933
 16         -5.1354059835   -1.1495040108    4.3104635070   -1.1299767228
 17         -5.1354032493   -1.1495051987    4.3104622293   -1.1299769504
 18         -5.1354013460   -1.1495059062    4.3104614691   -1.1299771061
 19         -5.1354000367   -1.1495063273    4.3104610171   -1.1299772117
 20         -5.1353991444   -1.1495065777    4.3104607485   -1.1299772828
 21         -5.1353985412   -1.1495067265    4.3104605891   -1.1299773304
 22         -5.1353981359   -1.1495068148    4.3104604946   -1.1299773622
 23         -5.1353978652   -1.1495068672    4.3104604386   -1.1299773832
 24         -5.1353976853   -1.1495068983    4.3104604055   -1.1299773971
 25         -5.1353975661   -1.1495069166    4.3104603860   -1.1299774063
 26         -5.1353974874   -1.1495069275    4.3104603744   -1.1299774123
Atom SCF converged after  26 iterations to a total energy of     -5.13539749

Atom SCF Calculation for S  : Z (AE atom) =  16 : Z (PS atom) =   6
Config String:
Orbitals (num,occ):  2     2.00 4.00
Orbitals   (num,l):  2        0    1
Real-space Grid (nr,dr,rmax): 1223    0.0065466448    8.0000000000
Spherical Bessel Basis (nsws,lmax,cutoff):   48    2  182.3119948938
Confining potential (l,width,scale):  0    3.0000000000  100.0000000000
Confining potential (l,width,scale):  1    3.0000000000  100.0000000000
  1        -12.3994158861   -0.6043175798   10.1554306392   -1.9817841191
  2         -9.2418411382   -2.3141303769    7.9217470137   -1.5702031266
  3         -9.8034168394   -1.9270168218    8.3206936605   -1.6512330357
  4         -9.7677535592   -1.9251144655    8.3232159042   -1.6542649614
  5         -9.7647675002   -1.9162211199    8.3330021357   -1.6576454382
  6         -9.7648059399   -1.9121073052    8.3375143804   -1.6591784162
  7         -9.7649491656   -1.9096235853    8.3402391467   -1.6601266483
  8         -9.7650760152   -1.9081414474    8.3418656143   -1.6607074121
  9         -9.7651706985   -1.9072604854    8.3428326937   -1.6610617503
 10         -9.7652382514   -1.9067372803    8.3434072476   -1.6612776996
 11         -9.7652857165   -1.9064264393    8.3437487186   -1.6614093230
 12         -9.7653187878   -1.9062416398    8.3439518026   -1.6614896017
 13         -9.7653416603   -1.9061316977    8.3440726682   -1.6615386084
 14         -9.7653573623   -1.9060662508    8.3441446457   -1.6615685550
 15         -9.7653680636   -1.9060272717    8.3441875315   -1.6615868736
 16         -9.7653753069   -1.9060040469    8.3442130947   -1.6615980912
 17         -9.7653801789   -1.9059902041    8.3442283379   -1.6616049679
 18         -9.7653834376   -1.9059819507    8.3442374303   -1.6616091880
 19         -9.7653856064   -1.9059770284    8.3442428555   -1.6616117806
 20         -9.7653870434   -1.9059740920    8.3442460935   -1.6616133752
 21         -9.7653879920   -1.9059723397    8.3442480267   -1.6616143570
 22         -9.7653886159   -1.9059712938    8.3442491812   -1.6616149621
 23         -9.7653890251   -1.9059706693    8.3442498709   -1.6616153355
 24         -9.7653892927   -1.9059702962    8.3442502831   -1.6616155662
 25         -9.7653894674   -1.9059700734    8.3442505295   -1.6616157088
 26         -9.7653895811   -1.9059699402    8.3442506769   -1.6616157972
 27         -9.7653896550   -1.9059698605    8.3442507650   -1.6616158519
Atom SCF converged after  27 iterations to a total energy of     -9.76538966

Atom SCF Calculation for O  : Z (AE atom) =   8 : Z (PS atom) =   6
Config String:
Orbitals (num,occ):  2     2.00 4.00
Orbitals   (num,l):  2        0    1
Real-space Grid (nr,dr,rmax): 1223    0.0065466448    8.0000000000
Spherical Bessel Basis (nsws,lmax,cutoff):   48    1  182.3119948938
Confining potential (l,width,scale):  0    3.0000000000  100.0000000000
Confining potential (l,width,scale):  1    3.0000000000  100.0000000000
  1         -1.5660355271   -6.8154879378   10.1554306392   -1.9817841191
  2        -16.4385697371   -2.3896453043   13.5944532894   -2.6260742405
  3        -14.9493756031   -2.7563365996   13.2023051851   -2.5596124416
  4        -15.3921156116   -2.6131635629   13.3532696858   -2.5891318304
  5        -15.2222620343   -2.6552718809   13.3087861887   -2.5818428772
  6        -15.2271219795   -2.6512490305   13.3131301120   -2.5830481560
  7        -15.2216556511   -2.6517566327   13.3126322695   -2.5831384415
  8        -15.2189409231   -2.6519165698   13.3124873659   -2.5832258273
  9        -15.2176830401   -2.6519870245   13.3124248803   -2.5832715807
 10        -15.2168274876   -2.6520379051   13.3123794352   -2.5833033936
 11        -15.2162432841   -2.6520751044   13.3123459086   -2.5833253977
 12        -15.2158436233   -2.6521023370   13.3123211479   -2.5833405877
 13        -15.2155699453   -2.6521222216   13.3123029240   -2.5833510681
 14        -15.2153824277   -2.6521366873   13.3122895736   -2.5833582998
 15        -15.2152538907   -2.6521471711   13.3122798388   -2.5833632917
 16        -15.2151657518   -2.6521547421   13.3122727707   -2.5833667391
 17        -15.2151052947   -2.6521601922   13.3122676585   -2.5833691212
 18        -15.2150638124   -2.6521641043   13.3122639735   -2.5833707681
 19        -15.2150353409   -2.6521669051   13.3122613253   -2.5833719074
 20        -15.2150157937   -2.6521689058   13.3122594273   -2.5833726959
 21        -15.2150023695   -2.6521703318   13.3122580703   -2.5833732419
 22        -15.2149931477   -2.6521713464   13.3122571023   -2.5833736203
 23        -15.2149868109   -2.6521720670   13.3122564130   -2.5833738826
 24        -15.2149824553   -2.6521725780   13.3122559231   -2.5833740645
 25        -15.2149794607   -2.6521729398   13.3122555755   -2.5833741908
 26        -15.2149774013   -2.6521731957   13.3122553293   -2.5833742785
 27        -15.2149759847   -2.6521733764   13.3122551550   -2.5833743394
 28        -15.2149750099   -2.6521735039   13.3122550319   -2.5833743817
 29        -15.2149743390   -2.6521735937   13.3122549450   -2.5833744111
 30        -15.2149738771   -2.6521736570   13.3122548838   -2.5833744316
 31        -15.2149735591   -2.6521737015   13.3122548406   -2.5833744458
 32        -15.2149733401   -2.6521737328   13.3122548103   -2.5833744558
 33        -15.2149731892   -2.6521737547   13.3122547889   -2.5833744627
 34        -15.2149730852   -2.6521737701   13.3122547740   -2.5833744675
 35        -15.2149730135   -2.6521737809   13.3122547634   -2.5833744708
Atom SCF converged after  35 iterations to a total energy of    -15.21497301

BC: +++++++++++++++ Summary of boundary conditions ++++++++++++++
BC: |       Component       |     Keyword     |   Periodicity   |
BC: |                       |                 |     X  Y  Z [1] |
BC: |-----------------------------------------------------------|
BC: | Ion-ion               | ion_ion_bc [2]  |     P  P  P     |
BC: | Local pseudopotential | pspot_bc [3]    |     P  P  P     |
BC: | Hartree-Fock exchange | hfx_bc          |     P  P  P     |
BC: | Van der Waals         | vdw_bc          |     P  P  P     |
BC: +++++++++++++++++++++++++++++++++++++++++++++++++++++++++++++
BC: P: Periodic, O: Open.
BC: [1] Not strictly along X, Y, Z but rather along lattice vectors A1, A2, A3.
BC: [2] Also affected by: pbc_correction_cutoff, cutoff_coulomb_type,
BC:     is_smeared_ion_rep, is_implicit_solvent, openbc_ion_ion.
BC: [3] Also affected by: is_smeared_ion_rep, is_implicit_solvent, openbc_pspot.

WARNING: The number of FFT boxes in a batch is not a multiple of the number of
OpenMP threads. Consider changing fftbox_batch_size.

Determining parallel strategy ...
... using space-filling curve
... NGWF load balancing: max     90;  min     89;  average     89
... Projector load balancing: max     22;  min     16;  average     17
... done
Calculating Ewald energy ...
              Ewald: real-space energy =         5215.837979
        Ewald: reciprocal-space energy =         4029.659275
         Ewald: (sum_charge)**2 energy =          637.450247
         Ewald: (sum_charge**2) energy =          109.455367
                          Ewald energy =         8498.591640
======================= Empirical dispersion information =======================
Model : Elstner
WARNING: No optimised dispersion parameters available for B3LYP
Dispersion Correction Energy: -0.20353922E+00 Hartree
================================================================================
Basis initialisation ...... NGWF spheres initialised
... Projector spheres initialised
... NGWF tight boxes initialised
... Tight-boxes gathered
... NGWF basis size (local,global):        232143      1861254
... Nonlocal pseudopotential projector initialisation
... done

Initialising remote NGWF capability... done. 

SWRI: Initialising module (stage 1)... 
SWRI: [for_hfx] Initialising (stage 1)...
SWRI: [for_hfx] - Using user-selected metric matrix evaluation scheme (2D numerical-1D analytic).
SWRI: [for_hfx] - Initialising Bessels (l_max=3)... done.
SWRI: [for_hfx] - Initialising radial lookup... done.
SWRI: [for_hfx] - SW batch size (tile width) set to 192.
SWRI: [for_hfx] - Initialising persistent cache structures... done.
SWRI: [for_hfx] - Initialising metric matrix... done.
SWRI: [for_hfx] Done.
SWRI: Stage 1 completed.

========================== Sparse matrix information ===========================
                        Overlap matrix filling:  36.14%
                        Density kernel filling: 100.00%
              NGWF-Proj overlap matrix filling:  11.66%
                    Hamiltonian matrix filling: 100.00%
                  NGWF diagonal matrix filling:   0.46%
                             KS matrix filling: 100.00% 
                           KSKS matrix filling: 100.00% 
================================================================================

Sparse matrix initialisation ... done
HFx: Creating X matrix structure for val rep (spin 1).
Initializing spherical harmonic rotation module.

SWRI: Initializing module (stage 2)... 
SWRI: [for_hfx] Initialising (stage 2)... 
SWRI: [for_hfx] - NL: Populating neighbour list: SWRI_S_ATOMS... done.
SWRI: [for_hfx] - Generating and communicating atomblock list.
SWRI: [for_hfx]   0 atomblocks read from disk.
SWRI: [for_hfx]   16586 atomblocks to process.
SWRI: [for_hfx]   Sorting atomblocks according to proximitiy to (    0.000000,    0.000000,    0.000000).
SWRI: [for_hfx] - Calculating on-site elements of the metric matrix V... done.
SWRI: [for_hfx] - Calculating off-site elements of the metric matrix V.
 +----------------------------------------------------+
 |  Spherical wave res. of identity Chebyshev engine  |
 |  Estimated memory requirement per MPI rank         |
 +----------------------------------------------------+
 |  workspace atomblock                 :  288.00 kB  |
 |  vtile                               :  288.00 kB  |
 |  recvtile                            :  288.00 kB  |
 |  workers_done                        :   32.00  B  |
 |  atomblocklist                       :  323.95 kB  |
 |  tilelist (root only)                :  194.37 kB  |
 |  tile hash table (upper bound)       :    2.25 MB  |
 |  nodes_template                      :  162.00 kB  |
 |  swop_values                         :    3.16 MB  |
 |  swy_values                          :    3.16 MB  |
 |  swhome_all_coeffs                   :   30.38 MB  |
 |  swpot_batch_coeffs                  :   30.38 MB  |
 |  all_atomblocks (indices)            :  568.55 kB  |
 |  my_atomblocks (indices)             :  568.55 kB  |
 |  num_q_per_l                         :   80.00  B  |
 |  atomblock rotation matrix           :  288.00 kB  |
 +----------------------------------------------------+
 |  Estimated peak total per MPI rank   :   72.23 MB  |
 +----------------------------------------------------+
SWRI: [for_hfx]   16586 tiles to process (16586 atomblocks x 1 batches)
SWRI: [for_hfx]   Tiles completed:        0, left:    16578, in progress:     8.
SWRI: [for_hfx]   Tiles completed:        2, left:    16576, in progress:     8.
SWRI: [for_hfx]   Tiles completed:        9, left:    16569, in progress:     8.
SWRI: [for_hfx]   Tiles completed:       17, left:    16561, in progress:     8.
SWRI: [for_hfx]   Tiles completed:       25, left:    16553, in progress:     8.
SWRI: [for_hfx]   Tiles completed:       32, left:    16546, in progress:     8.
SWRI: [for_hfx]   Tiles completed:       40, left:    16538, in progress:     8.
SWRI: [for_hfx]   Tiles completed:       47, left:    16531, in progress:     8.
SWRI: [for_hfx]   Tiles completed:       52, left:    16526, in progress:     8.
SWRI: [for_hfx]   Tiles completed:       59, left:    16519, in progress:     8.
SWRI: [for_hfx]   Tiles completed:       65, left:    16513, in progress:     8.
SWRI: [for_hfx]   Tiles completed:       73, left:    16505, in progress:     8.
SWRI: [for_hfx]   Tiles completed:       81, left:    16497, in progress:     8.
SWRI: [for_hfx]   Tiles completed:       88, left:    16490, in progress:     8.
SWRI: [for_hfx]   Tiles completed:       95, left:    16483, in progress:     8.
SWRI: [for_hfx]   Tiles completed:      103, left:    16475, in progress:     8.
SWRI: [for_hfx]   Tiles completed:      109, left:    16469, in progress:     8.
SWRI: [for_hfx]   Tiles completed:      115, left:    16463, in progress:     8.
SWRI: [for_hfx]   Tiles completed:      122, left:    16456, in progress:     8.
SWRI: [for_hfx]   Tiles completed:      129, left:    16449, in progress:     8.
SWRI: [for_hfx]   Tiles completed:      137, left:    16441, in progress:     8.
SWRI: [for_hfx]   Tiles completed:      145, left:    16433, in progress:     8.
SWRI: [for_hfx]   Tiles completed:      151, left:    16427, in progress:     8.
SWRI: [for_hfx]   Tiles completed:      158, left:    16420, in progress:     8.
SWRI: [for_hfx]   Tiles completed:      165, left:    16413, in progress:     8.
SWRI: [for_hfx]   Tiles completed:      172, left:    16406, in progress:     8.
SWRI: [for_hfx]   Tiles completed:      179, left:    16399, in progress:     8.
SWRI: [for_hfx]   Tiles completed:      186, left:    16392, in progress:     8.
SWRI: [for_hfx]   Tiles completed:      193, left:    16385, in progress:     8.
SWRI: [for_hfx]   Tiles completed:      201, left:    16377, in progress:     8.
SWRI: [for_hfx]   Tiles completed:      208, left:    16370, in progress:     8.
SWRI: [for_hfx]   Tiles completed:      214, left:    16364, in progress:     8.
SWRI: [for_hfx]   Tiles completed:      222, left:    16356, in progress:     8.
SWRI: [for_hfx]   Tiles completed:      227, left:    16351, in progress:     8.
SWRI: [for_hfx]   Tiles completed:      234, left:    16344, in progress:     8.
SWRI: [for_hfx]   Tiles completed:      241, left:    16337, in progress:     8.
SWRI: [for_hfx]   Tiles completed:      249, left:    16329, in progress:     8.
SWRI: [for_hfx]   Tiles completed:      256, left:    16322, in progress:     8.
SWRI: [for_hfx]   Tiles completed:      263, left:    16315, in progress:     8.
SWRI: [for_hfx]   Tiles completed:      271, left:    16307, in progress:     8.
SWRI: [for_hfx]   Tiles completed:      277, left:    16301, in progress:     8.
SWRI: [for_hfx]   Tiles completed:      284, left:    16294, in progress:     8.
SWRI: [for_hfx]   Tiles completed:      292, left:    16286, in progress:     8.
SWRI: [for_hfx]   Tiles completed:      299, left:    16279, in progress:     8.
SWRI: [for_hfx]   Tiles completed:      306, left:    16272, in progress:     8.
SWRI: [for_hfx]   Tiles completed:      314, left:    16264, in progress:     8.
SWRI: [for_hfx]   Tiles completed:      320, left:    16258, in progress:     8.
SWRI: [for_hfx]   Tiles completed:      327, left:    16251, in progress:     8.
SWRI: [for_hfx]   Tiles completed:      334, left:    16244, in progress:     8.
SWRI: [for_hfx]   Tiles completed:      340, left:    16238, in progress:     8.
SWRI: [for_hfx]   Tiles completed:      347, left:    16231, in progress:     8.
SWRI: [for_hfx]   Tiles completed:      355, left:    16223, in progress:     8.
SWRI: [for_hfx]   Tiles completed:      363, left:    16215, in progress:     8.
SWRI: [for_hfx]   Tiles completed:      370, left:    16208, in progress:     8.
SWRI: [for_hfx]   Tiles completed:      377, left:    16201, in progress:     8.
SWRI: [for_hfx]   Tiles completed:      383, left:    16195, in progress:     8.
SWRI: [for_hfx]   Tiles completed:      390, left:    16188, in progress:     8.
SWRI: [for_hfx]   Tiles completed:      398, left:    16180, in progress:     8.
SWRI: [for_hfx]   Tiles completed:      406, left:    16172, in progress:     8.
SWRI: [for_hfx]   Tiles completed:      412, left:    16166, in progress:     8.
SWRI: [for_hfx]   Tiles completed:      419, left:    16159, in progress:     8.
SWRI: [for_hfx]   Tiles completed:      426, left:    16152, in progress:     8.
SWRI: [for_hfx]   Tiles completed:      433, left:    16145, in progress:     8.
SWRI: [for_hfx]   Tiles completed:      439, left:    16139, in progress:     8.
SWRI: [for_hfx]   Tiles completed:      446, left:    16132, in progress:     8.
SWRI: [for_hfx]   Tiles completed:      454, left:    16124, in progress:     8.
SWRI: [for_hfx]   Tiles completed:      461, left:    16117, in progress:     8.
SWRI: [for_hfx]   Tiles completed:      469, left:    16109, in progress:     8.
SWRI: [for_hfx]   Tiles completed:      474, left:    16104, in progress:     8.
SWRI: [for_hfx]   Tiles completed:      481, left:    16097, in progress:     8.
SWRI: [for_hfx]   Tiles completed:      489, left:    16089, in progress:     8.
SWRI: [for_hfx]   Tiles completed:      495, left:    16083, in progress:     8.
SWRI: [for_hfx]   Tiles completed:      502, left:    16076, in progress:     8.
SWRI: [for_hfx]   Tiles completed:      508, left:    16070, in progress:     8.
SWRI: [for_hfx]   Tiles completed:      516, left:    16062, in progress:     8.
SWRI: [for_hfx]   Tiles completed:      524, left:    16054, in progress:     8.
SWRI: [for_hfx]   Tiles completed:      530, left:    16048, in progress:     8.
SWRI: [for_hfx]   Tiles completed:      536, left:    16042, in progress:     8.
SWRI: [for_hfx]   Tiles completed:      544, left:    16034, in progress:     8.
SWRI: [for_hfx]   Tiles completed:      552, left:    16026, in progress:     8.
SWRI: [for_hfx]   Tiles completed:      558, left:    16020, in progress:     8.
SWRI: [for_hfx]   Tiles completed:      565, left:    16013, in progress:     8.
SWRI: [for_hfx]   Tiles completed:      573, left:    16005, in progress:     8.
SWRI: [for_hfx]   Tiles completed:      580, left:    15998, in progress:     8.
SWRI: [for_hfx]   Tiles completed:      585, left:    15993, in progress:     8.
SWRI: [for_hfx]   Tiles completed:      592, left:    15986, in progress:     8.
SWRI: [for_hfx]   Tiles completed:      600, left:    15978, in progress:     8.
SWRI: [for_hfx]   Tiles completed:      607, left:    15971, in progress:     8.
SWRI: [for_hfx]   Tiles completed:      615, left:    15963, in progress:     8.
SWRI: [for_hfx]   Tiles completed:      621, left:    15957, in progress:     8.
SWRI: [for_hfx]   Tiles completed:      629, left:    15949, in progress:     8.
SWRI: [for_hfx]   Tiles completed:      636, left:    15942, in progress:     8.
SWRI: [for_hfx]   Tiles completed:      643, left:    15935, in progress:     8.
SWRI: [for_hfx]   Tiles completed:      649, left:    15929, in progress:     8.
SWRI: [for_hfx]   Tiles completed:      656, left:    15922, in progress:     8.
SWRI: [for_hfx]   Tiles completed:      664, left:    15914, in progress:     8.
SWRI: [for_hfx]   Tiles completed:      671, left:    15907, in progress:     8.
SWRI: [for_hfx]   Tiles completed:      678, left:    15900, in progress:     8.
SWRI: [for_hfx]   Tiles completed:      684, left:    15894, in progress:     8.
SWRI: [for_hfx]   Tiles completed:      690, left:    15888, in progress:     8.
SWRI: [for_hfx]   Tiles completed:      697, left:    15881, in progress:     8.
SWRI: [for_hfx]   Tiles completed:      705, left:    15873, in progress:     8.
SWRI: [for_hfx]   Tiles completed:      713, left:    15865, in progress:     8.
SWRI: [for_hfx]   Tiles completed:      720, left:    15858, in progress:     8.
SWRI: [for_hfx]   Tiles completed:      726, left:    15852, in progress:     8.
SWRI: [for_hfx]   Tiles completed:      733, left:    15845, in progress:     8.
SWRI: [for_hfx]   Tiles completed:      740, left:    15838, in progress:     8.
SWRI: [for_hfx]   Tiles completed:      747, left:    15831, in progress:     8.
SWRI: [for_hfx]   Tiles completed:      754, left:    15824, in progress:     8.
SWRI: [for_hfx]   Tiles completed:      761, left:    15817, in progress:     8.
SWRI: [for_hfx]   Tiles completed:      767, left:    15811, in progress:     8.
SWRI: [for_hfx]   Tiles completed:      775, left:    15803, in progress:     8.
SWRI: [for_hfx]   Tiles completed:      782, left:    15796, in progress:     8.
SWRI: [for_hfx]   Tiles completed:      789, left:    15789, in progress:     8.
SWRI: [for_hfx]   Tiles completed:      794, left:    15784, in progress:     8.
SWRI: [for_hfx]   Tiles completed:      802, left:    15776, in progress:     8.
SWRI: [for_hfx]   Tiles completed:      809, left:    15769, in progress:     8.
SWRI: [for_hfx]   Tiles completed:      817, left:    15761, in progress:     8.
SWRI: [for_hfx]   Tiles completed:      823, left:    15755, in progress:     8.
SWRI: [for_hfx]   Tiles completed:      830, left:    15748, in progress:     8.
SWRI: [for_hfx]   Tiles completed:      837, left:    15741, in progress:     8.
SWRI: [for_hfx]   Tiles completed:      845, left:    15733, in progress:     8.
SWRI: [for_hfx]   Tiles completed:      850, left:    15728, in progress:     8.
SWRI: [for_hfx]   Tiles completed:      858, left:    15720, in progress:     8.
SWRI: [for_hfx]   Tiles completed:      865, left:    15713, in progress:     8.
SWRI: [for_hfx]   Tiles completed:      873, left:    15705, in progress:     8.
SWRI: [for_hfx]   Tiles completed:      881, left:    15697, in progress:     8.
SWRI: [for_hfx]   Tiles completed:      889, left:    15689, in progress:     8.
SWRI: [for_hfx]   Tiles completed:      894, left:    15684, in progress:     8.
SWRI: [for_hfx]   Tiles completed:      901, left:    15677, in progress:     8.
SWRI: [for_hfx]   Tiles completed:      908, left:    15670, in progress:     8.
SWRI: [for_hfx]   Tiles completed:      915, left:    15663, in progress:     8.
SWRI: [for_hfx]   Tiles completed:      922, left:    15656, in progress:     8.
SWRI: [for_hfx]   Tiles completed:      929, left:    15649, in progress:     8.
SWRI: [for_hfx]   Tiles completed:      934, left:    15644, in progress:     8.
SWRI: [for_hfx]   Tiles completed:      942, left:    15636, in progress:     8.
SWRI: [for_hfx]   Tiles completed:      950, left:    15628, in progress:     8.
SWRI: [for_hfx]   Tiles completed:      958, left:    15620, in progress:     8.
SWRI: [for_hfx]   Tiles completed:      965, left:    15613, in progress:     8.
SWRI: [for_hfx]   Tiles completed:      972, left:    15606, in progress:     8.
SWRI: [for_hfx]   Tiles completed:      978, left:    15600, in progress:     8.
SWRI: [for_hfx]   Tiles completed:      986, left:    15592, in progress:     8.
SWRI: [for_hfx]   Tiles completed:      992, left:    15586, in progress:     8.
SWRI: [for_hfx]   Tiles completed:      999, left:    15579, in progress:     8.
SWRI: [for_hfx]   Tiles completed:     1007, left:    15571, in progress:     8.
SWRI: [for_hfx]   Tiles completed:     1015, left:    15563, in progress:     8.
SWRI: [for_hfx]   Tiles completed:     1021, left:    15557, in progress:     8.
SWRI: [for_hfx]   Tiles completed:     1029, left:    15549, in progress:     8.
SWRI: [for_hfx]   Tiles completed:     1034, left:    15544, in progress:     8.
SWRI: [for_hfx]   Tiles completed:     1041, left:    15537, in progress:     8.
SWRI: [for_hfx]   Tiles completed:     1051, left:    15527, in progress:     8.
SWRI: [for_hfx]   Tiles completed:     1058, left:    15520, in progress:     8.
SWRI: [for_hfx]   Tiles completed:     1065, left:    15513, in progress:     8.
SWRI: [for_hfx]   Tiles completed:     1073, left:    15505, in progress:     8.
SWRI: [for_hfx]   Tiles completed:     1080, left:    15498, in progress:     8.
SWRI: [for_hfx]   Tiles completed:     1087, left:    15491, in progress:     8.
SWRI: [for_hfx]   Tiles completed:     1094, left:    15484, in progress:     8.
SWRI: [for_hfx]   Tiles completed:     1102, left:    15476, in progress:     8.
SWRI: [for_hfx]   Tiles completed:     1110, left:    15468, in progress:     8.
SWRI: [for_hfx]   Tiles completed:     1116, left:    15462, in progress:     8.
SWRI: [for_hfx]   Tiles completed:     1122, left:    15456, in progress:     8.
SWRI: [for_hfx]   Tiles completed:     1127, left:    15451, in progress:     8.
SWRI: [for_hfx]   Tiles completed:     1135, left:    15443, in progress:     8.
SWRI: [for_hfx]   Tiles completed:     1143, left:    15435, in progress:     8.
SWRI: [for_hfx]   Tiles completed:     1151, left:    15427, in progress:     8.
SWRI: [for_hfx]   Tiles completed:     1157, left:    15421, in progress:     8.
SWRI: [for_hfx]   Tiles completed:     1163, left:    15415, in progress:     8.
SWRI: [for_hfx]   Tiles completed:     1171, left:    15407, in progress:     8.
SWRI: [for_hfx]   Tiles completed:     1178, left:    15400, in progress:     8.
SWRI: [for_hfx]   Tiles completed:     1186, left:    15392, in progress:     8.
SWRI: [for_hfx]   Tiles completed:     1191, left:    15387, in progress:     8.
SWRI: [for_hfx]   Tiles completed:     1199, left:    15379, in progress:     8.
SWRI: [for_hfx]   Tiles completed:     1207, left:    15371, in progress:     8.
SWRI: [for_hfx]   Tiles completed:     1214, left:    15364, in progress:     8.
SWRI: [for_hfx]   Tiles completed:     1220, left:    15358, in progress:     8.
SWRI: [for_hfx]   Tiles completed:     1227, left:    15351, in progress:     8.
SWRI: [for_hfx]   Tiles completed:     1234, left:    15344, in progress:     8.
SWRI: [for_hfx]   Tiles completed:     1242, left:    15336, in progress:     8.
SWRI: [for_hfx]   Tiles completed:     1249, left:    15329, in progress:     8.
SWRI: [for_hfx]   Tiles completed:     1257, left:    15321, in progress:     8.
SWRI: [for_hfx]   Tiles completed:     1265, left:    15313, in progress:     8.
SWRI: [for_hfx]   Tiles completed:     1270, left:    15308, in progress:     8.
SWRI: [for_hfx]   Tiles completed:     1276, left:    15302, in progress:     8.
SWRI: [for_hfx]   Tiles completed:     1284, left:    15294, in progress:     8.
SWRI: [for_hfx]   Tiles completed:     1291, left:    15287, in progress:     8.
SWRI: [for_hfx]   Tiles completed:     1298, left:    15280, in progress:     8.
SWRI: [for_hfx]   Tiles completed:     1305, left:    15273, in progress:     8.
SWRI: [for_hfx]   Tiles completed:     1312, left:    15266, in progress:     8.
SWRI: [for_hfx]   Tiles completed:     1319, left:    15259, in progress:     8.
SWRI: [for_hfx]   Tiles completed:     1326, left:    15252, in progress:     8.
SWRI: [for_hfx]   Tiles completed:     1333, left:    15245, in progress:     8.
SWRI: [for_hfx]   Tiles completed:     1341, left:    15237, in progress:     8.
SWRI: [for_hfx]   Tiles completed:     1348, left:    15230, in progress:     8.
SWRI: [for_hfx]   Tiles completed:     1355, left:    15223, in progress:     8.
SWRI: [for_hfx]   Tiles completed:     1362, left:    15216, in progress:     8.
SWRI: [for_hfx]   Tiles completed:     1368, left:    15210, in progress:     8.
SWRI: [for_hfx]   Tiles completed:     1375, left:    15203, in progress:     8.
SWRI: [for_hfx]   Tiles completed:     1382, left:    15196, in progress:     8.
SWRI: [for_hfx]   Tiles completed:     1390, left:    15188, in progress:     8.
SWRI: [for_hfx]   Tiles completed:     1396, left:    15182, in progress:     8.
SWRI: [for_hfx]   Tiles completed:     1404, left:    15174, in progress:     8.
SWRI: [for_hfx]   Tiles completed:     1411, left:    15167, in progress:     8.
SWRI: [for_hfx]   Tiles completed:     1417, left:    15161, in progress:     8.
SWRI: [for_hfx]   Tiles completed:     1423, left:    15155, in progress:     8.
SWRI: [for_hfx]   Tiles completed:     1431, left:    15147, in progress:     8.
SWRI: [for_hfx]   Tiles completed:     1438, left:    15140, in progress:     8.
SWRI: [for_hfx]   Tiles completed:     1445, left:    15133, in progress:     8.
SWRI: [for_hfx]   Tiles completed:     1453, left:    15125, in progress:     8.
SWRI: [for_hfx]   Tiles completed:     1461, left:    15117, in progress:     8.
SWRI: [for_hfx]   Tiles completed:     1466, left:    15112, in progress:     8.
SWRI: [for_hfx]   Tiles completed:     1471, left:    15107, in progress:     8.
SWRI: [for_hfx]   Tiles completed:     1479, left:    15099, in progress:     8.
SWRI: [for_hfx]   Tiles completed:     1486, left:    15092, in progress:     8.
SWRI: [for_hfx]   Tiles completed:     1494, left:    15084, in progress:     8.
SWRI: [for_hfx]   Tiles completed:     1502, left:    15076, in progress:     8.
SWRI: [for_hfx]   Tiles completed:     1508, left:    15070, in progress:     8.
SWRI: [for_hfx]   Tiles completed:     1515, left:    15063, in progress:     8.
SWRI: [for_hfx]   Tiles completed:     1523, left:    15055, in progress:     8.
SWRI: [for_hfx]   Tiles completed:     1530, left:    15048, in progress:     8.
SWRI: [for_hfx]   Tiles completed:     1535, left:    15043, in progress:     8.
SWRI: [for_hfx]   Tiles completed:     1542, left:    15036, in progress:     8.
SWRI: [for_hfx]   Tiles completed:     1549, left:    15029, in progress:     8.
SWRI: [for_hfx]   Tiles completed:     1557, left:    15021, in progress:     8.
SWRI: [for_hfx]   Tiles completed:     1565, left:    15013, in progress:     8.
SWRI: [for_hfx]   Tiles completed:     1572, left:    15006, in progress:     8.
SWRI: [for_hfx]   Tiles completed:     1580, left:    14998, in progress:     8.
SWRI: [for_hfx]   Tiles completed:     1585, left:    14993, in progress:     8.
SWRI: [for_hfx]   Tiles completed:     1593, left:    14985, in progress:     8.
SWRI: [for_hfx]   Tiles completed:     1600, left:    14978, in progress:     8.
SWRI: [for_hfx]   Tiles completed:     1606, left:    14972, in progress:     8.
SWRI: [for_hfx]   Tiles completed:     1614, left:    14964, in progress:     8.
SWRI: [for_hfx]   Tiles completed:     1622, left:    14956, in progress:     8.
SWRI: [for_hfx]   Tiles completed:     1629, left:    14949, in progress:     8.
SWRI: [for_hfx]   Tiles completed:     1637, left:    14941, in progress:     8.
SWRI: [for_hfx]   Tiles completed:     1645, left:    14933, in progress:     8.
SWRI: [for_hfx]   Tiles completed:     1651, left:    14927, in progress:     8.
SWRI: [for_hfx]   Tiles completed:     1659, left:    14919, in progress:     8.
SWRI: [for_hfx]   Tiles completed:     1667, left:    14911, in progress:     8.
SWRI: [for_hfx]   Tiles completed:     1674, left:    14904, in progress:     8.
SWRI: [for_hfx]   Tiles completed:     1682, left:    14896, in progress:     8.
SWRI: [for_hfx]   Tiles completed:     1689, left:    14889, in progress:     8.
SWRI: [for_hfx]   Tiles completed:     1697, left:    14881, in progress:     8.
SWRI: [for_hfx]   Tiles completed:     1703, left:    14875, in progress:     8.
SWRI: [for_hfx]   Tiles completed:     1710, left:    14868, in progress:     8.
SWRI: [for_hfx]   Tiles completed:     1716, left:    14862, in progress:     8.
SWRI: [for_hfx]   Tiles completed:     1723, left:    14855, in progress:     8.
SWRI: [for_hfx]   Tiles completed:     1730, left:    14848, in progress:     8.
SWRI: [for_hfx]   Tiles completed:     1738, left:    14840, in progress:     8.
SWRI: [for_hfx]   Tiles completed:     1744, left:    14834, in progress:     8.
SWRI: [for_hfx]   Tiles completed:     1753, left:    14825, in progress:     8.
SWRI: [for_hfx]   Tiles completed:     1760, left:    14818, in progress:     8.
SWRI: [for_hfx]   Tiles completed:     1767, left:    14811, in progress:     8.
SWRI: [for_hfx]   Tiles completed:     1773, left:    14805, in progress:     8.
SWRI: [for_hfx]   Tiles completed:     1780, left:    14798, in progress:     8.
SWRI: [for_hfx]   Tiles completed:     1788, left:    14790, in progress:     8.
SWRI: [for_hfx]   Tiles completed:     1796, left:    14782, in progress:     8.
SWRI: [for_hfx]   Tiles completed:     1804, left:    14774, in progress:     8.
SWRI: [for_hfx]   Tiles completed:     1811, left:    14767, in progress:     8.
SWRI: [for_hfx]   Tiles completed:     1819, left:    14759, in progress:     8.
SWRI: [for_hfx]   Tiles completed:     1827, left:    14751, in progress:     8.
SWRI: [for_hfx]   Tiles completed:     1833, left:    14745, in progress:     8.
SWRI: [for_hfx]   Tiles completed:     1841, left:    14737, in progress:     8.
SWRI: [for_hfx]   Tiles completed:     1849, left:    14729, in progress:     8.
SWRI: [for_hfx]   Tiles completed:     1856, left:    14722, in progress:     8.
SWRI: [for_hfx]   Tiles completed:     1864, left:    14714, in progress:     8.
SWRI: [for_hfx]   Tiles completed:     1871, left:    14707, in progress:     8.
SWRI: [for_hfx]   Tiles completed:     1879, left:    14699, in progress:     8.
SWRI: [for_hfx]   Tiles completed:     1886, left:    14692, in progress:     8.
SWRI: [for_hfx]   Tiles completed:     1892, left:    14686, in progress:     8.
SWRI: [for_hfx]   Tiles completed:     1900, left:    14678, in progress:     8.
SWRI: [for_hfx]   Tiles completed:     1908, left:    14670, in progress:     8.
SWRI: [for_hfx]   Tiles completed:     1915, left:    14663, in progress:     8.
SWRI: [for_hfx]   Tiles completed:     1923, left:    14655, in progress:     8.
SWRI: [for_hfx]   Tiles completed:     1929, left:    14649, in progress:     8.
SWRI: [for_hfx]   Tiles completed:     1937, left:    14641, in progress:     8.
SWRI: [for_hfx]   Tiles completed:     1946, left:    14632, in progress:     8.
SWRI: [for_hfx]   Tiles completed:     1954, left:    14624, in progress:     8.
SWRI: [for_hfx]   Tiles completed:     1961, left:    14617, in progress:     8.
SWRI: [for_hfx]   Tiles completed:     1969, left:    14609, in progress:     8.
SWRI: [for_hfx]   Tiles completed:     1976, left:    14602, in progress:     8.
SWRI: [for_hfx]   Tiles completed:     1982, left:    14596, in progress:     8.
SWRI: [for_hfx]   Tiles completed:     1989, left:    14589, in progress:     8.
SWRI: [for_hfx]   Tiles completed:     1996, left:    14582, in progress:     8.
SWRI: [for_hfx]   Tiles completed:     2004, left:    14574, in progress:     8.
SWRI: [for_hfx]   Tiles completed:     2011, left:    14567, in progress:     8.
SWRI: [for_hfx]   Tiles completed:     2019, left:    14559, in progress:     8.
SWRI: [for_hfx]   Tiles completed:     2026, left:    14552, in progress:     8.
SWRI: [for_hfx]   Tiles completed:     2034, left:    14544, in progress:     8.
SWRI: [for_hfx]   Tiles completed:     2042, left:    14536, in progress:     8.
SWRI: [for_hfx]   Tiles completed:     2048, left:    14530, in progress:     8.
SWRI: [for_hfx]   Tiles completed:     2055, left:    14523, in progress:     8.
SWRI: [for_hfx]   Tiles completed:     2061, left:    14517, in progress:     8.
SWRI: [for_hfx]   Tiles completed:     2069, left:    14509, in progress:     8.
SWRI: [for_hfx]   Tiles completed:     2077, left:    14501, in progress:     8.
SWRI: [for_hfx]   Tiles completed:     2085, left:    14493, in progress:     8.
SWRI: [for_hfx]   Tiles completed:     2092, left:    14486, in progress:     8.
SWRI: [for_hfx]   Tiles completed:     2100, left:    14478, in progress:     8.
SWRI: [for_hfx]   Tiles completed:     2108, left:    14470, in progress:     8.
SWRI: [for_hfx]   Tiles completed:     2115, left:    14463, in progress:     8.
SWRI: [for_hfx]   Tiles completed:     2123, left:    14455, in progress:     8.
SWRI: [for_hfx]   Tiles completed:     2128, left:    14450, in progress:     8.
SWRI: [for_hfx]   Tiles completed:     2135, left:    14443, in progress:     8.
SWRI: [for_hfx]   Tiles completed:     2142, left:    14436, in progress:     8.
SWRI: [for_hfx]   Tiles completed:     2148, left:    14430, in progress:     8.
SWRI: [for_hfx]   Tiles completed:     2156, left:    14422, in progress:     8.
SWRI: [for_hfx]   Tiles completed:     2164, left:    14414, in progress:     8.
SWRI: [for_hfx]   Tiles completed:     2172, left:    14406, in progress:     8.
SWRI: [for_hfx]   Tiles completed:     2179, left:    14399, in progress:     8.
SWRI: [for_hfx]   Tiles completed:     2186, left:    14392, in progress:     8.
SWRI: [for_hfx]   Tiles completed:     2192, left:    14386, in progress:     8.
SWRI: [for_hfx]   Tiles completed:     2200, left:    14378, in progress:     8.
SWRI: [for_hfx]   Tiles completed:     2209, left:    14369, in progress:     8.
SWRI: [for_hfx]   Tiles completed:     2217, left:    14361, in progress:     8.
SWRI: [for_hfx]   Tiles completed:     2224, left:    14354, in progress:     8.
SWRI: [for_hfx]   Tiles completed:     2232, left:    14346, in progress:     8.
SWRI: [for_hfx]   Tiles completed:     2240, left:    14338, in progress:     8.
SWRI: [for_hfx]   Tiles completed:     2248, left:    14330, in progress:     8.
SWRI: [for_hfx]   Tiles completed:     2256, left:    14322, in progress:     8.
SWRI: [for_hfx]   Tiles completed:     2263, left:    14315, in progress:     8.
SWRI: [for_hfx]   Tiles completed:     2271, left:    14307, in progress:     8.
SWRI: [for_hfx]   Tiles completed:     2277, left:    14301, in progress:     8.
SWRI: [for_hfx]   Tiles completed:     2284, left:    14294, in progress:     8.
SWRI: [for_hfx]   Tiles completed:     2291, left:    14287, in progress:     8.
SWRI: [for_hfx]   Tiles completed:     2299, left:    14279, in progress:     8.
SWRI: [for_hfx]   Tiles completed:     2305, left:    14273, in progress:     8.
SWRI: [for_hfx]   Tiles completed:     2312, left:    14266, in progress:     8.
SWRI: [for_hfx]   Tiles completed:     2320, left:    14258, in progress:     8.
SWRI: [for_hfx]   Tiles completed:     2328, left:    14250, in progress:     8.
SWRI: [for_hfx]   Tiles completed:     2335, left:    14243, in progress:     8.
SWRI: [for_hfx]   Tiles completed:     2343, left:    14235, in progress:     8.
SWRI: [for_hfx]   Tiles completed:     2351, left:    14227, in progress:     8.
SWRI: [for_hfx]   Tiles completed:     2358, left:    14220, in progress:     8.
SWRI: [for_hfx]   Tiles completed:     2364, left:    14214, in progress:     8.
SWRI: [for_hfx]   Tiles completed:     2371, left:    14207, in progress:     8.
SWRI: [for_hfx]   Tiles completed:     2378, left:    14200, in progress:     8.
SWRI: [for_hfx]   Tiles completed:     2385, left:    14193, in progress:     8.
SWRI: [for_hfx]   Tiles completed:     2392, left:    14186, in progress:     8.
SWRI: [for_hfx]   Tiles completed:     2400, left:    14178, in progress:     8.
SWRI: [for_hfx]   Tiles completed:     2408, left:    14170, in progress:     8.
SWRI: [for_hfx]   Tiles completed:     2417, left:    14161, in progress:     8.
SWRI: [for_hfx]   Tiles completed:     2425, left:    14153, in progress:     8.
SWRI: [for_hfx]   Tiles completed:     2433, left:    14145, in progress:     8.
SWRI: [for_hfx]   Tiles completed:     2441, left:    14137, in progress:     8.
SWRI: [for_hfx]   Tiles completed:     2448, left:    14130, in progress:     8.
SWRI: [for_hfx]   Tiles completed:     2456, left:    14122, in progress:     8.
SWRI: [for_hfx]   Tiles completed:     2464, left:    14114, in progress:     8.
SWRI: [for_hfx]   Tiles completed:     2471, left:    14107, in progress:     8.
SWRI: [for_hfx]   Tiles completed:     2478, left:    14100, in progress:     8.
SWRI: [for_hfx]   Tiles completed:     2485, left:    14093, in progress:     8.
SWRI: [for_hfx]   Tiles completed:     2491, left:    14087, in progress:     8.
SWRI: [for_hfx]   Tiles completed:     2499, left:    14079, in progress:     8.
SWRI: [for_hfx]   Tiles completed:     2507, left:    14071, in progress:     8.
SWRI: [for_hfx]   Tiles completed:     2515, left:    14063, in progress:     8.
SWRI: [for_hfx]   Tiles completed:     2523, left:    14055, in progress:     8.
SWRI: [for_hfx]   Tiles completed:     2528, left:    14050, in progress:     8.
SWRI: [for_hfx]   Tiles completed:     2535, left:    14043, in progress:     8.
SWRI: [for_hfx]   Tiles completed:     2543, left:    14035, in progress:     8.
SWRI: [for_hfx]   Tiles completed:     2550, left:    14028, in progress:     8.
SWRI: [for_hfx]   Tiles completed:     2558, left:    14020, in progress:     8.
SWRI: [for_hfx]   Tiles completed:     2566, left:    14012, in progress:     8.
SWRI: [for_hfx]   Tiles completed:     2572, left:    14006, in progress:     8.
SWRI: [for_hfx]   Tiles completed:     2579, left:    13999, in progress:     8.
SWRI: [for_hfx]   Tiles completed:     2586, left:    13992, in progress:     8.
SWRI: [for_hfx]   Tiles completed:     2593, left:    13985, in progress:     8.
SWRI: [for_hfx]   Tiles completed:     2600, left:    13978, in progress:     8.
SWRI: [for_hfx]   Tiles completed:     2607, left:    13971, in progress:     8.
SWRI: [for_hfx]   Tiles completed:     2614, left:    13964, in progress:     8.
SWRI: [for_hfx]   Tiles completed:     2622, left:    13956, in progress:     8.
SWRI: [for_hfx]   Tiles completed:     2630, left:    13948, in progress:     8.
SWRI: [for_hfx]   Tiles completed:     2637, left:    13941, in progress:     8.
SWRI: [for_hfx]   Tiles completed:     2645, left:    13933, in progress:     8.
SWRI: [for_hfx]   Tiles completed:     2653, left:    13925, in progress:     8.
SWRI: [for_hfx]   Tiles completed:     2659, left:    13919, in progress:     8.
SWRI: [for_hfx]   Tiles completed:     2666, left:    13912, in progress:     8.
SWRI: [for_hfx]   Tiles completed:     2675, left:    13903, in progress:     8.
SWRI: [for_hfx]   Tiles completed:     2683, left:    13895, in progress:     8.
SWRI: [for_hfx]   Tiles completed:     2690, left:    13888, in progress:     8.
SWRI: [for_hfx]   Tiles completed:     2698, left:    13880, in progress:     8.
SWRI: [for_hfx]   Tiles completed:     2706, left:    13872, in progress:     8.
SWRI: [for_hfx]   Tiles completed:     2713, left:    13865, in progress:     8.
SWRI: [for_hfx]   Tiles completed:     2721, left:    13857, in progress:     8.
SWRI: [for_hfx]   Tiles completed:     2729, left:    13849, in progress:     8.
SWRI: [for_hfx]   Tiles completed:     2736, left:    13842, in progress:     8.
SWRI: [for_hfx]   Tiles completed:     2743, left:    13835, in progress:     8.
SWRI: [for_hfx]   Tiles completed:     2751, left:    13827, in progress:     8.
SWRI: [for_hfx]   Tiles completed:     2759, left:    13819, in progress:     8.
SWRI: [for_hfx]   Tiles completed:     2766, left:    13812, in progress:     8.
SWRI: [for_hfx]   Tiles completed:     2774, left:    13804, in progress:     8.
SWRI: [for_hfx]   Tiles completed:     2779, left:    13799, in progress:     8.
SWRI: [for_hfx]   Tiles completed:     2786, left:    13792, in progress:     8.
SWRI: [for_hfx]   Tiles completed:     2794, left:    13784, in progress:     8.
SWRI: [for_hfx]   Tiles completed:     2802, left:    13776, in progress:     8.
SWRI: [for_hfx]   Tiles completed:     2808, left:    13770, in progress:     8.
SWRI: [for_hfx]   Tiles completed:     2815, left:    13763, in progress:     8.
SWRI: [for_hfx]   Tiles completed:     2822, left:    13756, in progress:     8.
SWRI: [for_hfx]   Tiles completed:     2830, left:    13748, in progress:     8.
SWRI: [for_hfx]   Tiles completed:     2838, left:    13740, in progress:     8.
SWRI: [for_hfx]   Tiles completed:     2845, left:    13733, in progress:     8.
SWRI: [for_hfx]   Tiles completed:     2853, left:    13725, in progress:     8.
SWRI: [for_hfx]   Tiles completed:     2859, left:    13719, in progress:     8.
SWRI: [for_hfx]   Tiles completed:     2865, left:    13713, in progress:     8.
SWRI: [for_hfx]   Tiles completed:     2871, left:    13707, in progress:     8.
SWRI: [for_hfx]   Tiles completed:     2879, left:    13699, in progress:     8.
SWRI: [for_hfx]   Tiles completed:     2887, left:    13691, in progress:     8.
SWRI: [for_hfx]   Tiles completed:     2896, left:    13682, in progress:     8.
SWRI: [for_hfx]   Tiles completed:     2903, left:    13675, in progress:     8.
SWRI: [for_hfx]   Tiles completed:     2912, left:    13666, in progress:     8.
SWRI: [for_hfx]   Tiles completed:     2920, left:    13658, in progress:     8.
SWRI: [for_hfx]   Tiles completed:     2926, left:    13652, in progress:     8.
SWRI: [for_hfx]   Tiles completed:     2934, left:    13644, in progress:     8.
SWRI: [for_hfx]   Tiles completed:     2941, left:    13637, in progress:     8.
SWRI: [for_hfx]   Tiles completed:     2949, left:    13629, in progress:     8.
SWRI: [for_hfx]   Tiles completed:     2957, left:    13621, in progress:     8.
SWRI: [for_hfx]   Tiles completed:     2964, left:    13614, in progress:     8.
SWRI: [for_hfx]   Tiles completed:     2972, left:    13606, in progress:     8.
SWRI: [for_hfx]   Tiles completed:     2980, left:    13598, in progress:     8.
SWRI: [for_hfx]   Tiles completed:     2987, left:    13591, in progress:     8.
SWRI: [for_hfx]   Tiles completed:     2995, left:    13583, in progress:     8.
SWRI: [for_hfx]   Tiles completed:     3003, left:    13575, in progress:     8.
SWRI: [for_hfx]   Tiles completed:     3010, left:    13568, in progress:     8.
SWRI: [for_hfx]   Tiles completed:     3017, left:    13561, in progress:     8.
SWRI: [for_hfx]   Tiles completed:     3023, left:    13555, in progress:     8.
SWRI: [for_hfx]   Tiles completed:     3031, left:    13547, in progress:     8.
SWRI: [for_hfx]   Tiles completed:     3039, left:    13539, in progress:     8.
SWRI: [for_hfx]   Tiles completed:     3046, left:    13532, in progress:     8.
SWRI: [for_hfx]   Tiles completed:     3053, left:    13525, in progress:     8.
SWRI: [for_hfx]   Tiles completed:     3061, left:    13517, in progress:     8.
SWRI: [for_hfx]   Tiles completed:     3068, left:    13510, in progress:     8.
SWRI: [for_hfx]   Tiles completed:     3075, left:    13503, in progress:     8.
SWRI: [for_hfx]   Tiles completed:     3083, left:    13495, in progress:     8.
SWRI: [for_hfx]   Tiles completed:     3089, left:    13489, in progress:     8.
SWRI: [for_hfx]   Tiles completed:     3100, left:    13478, in progress:     8.
SWRI: [for_hfx]   Tiles completed:     3108, left:    13470, in progress:     8.
SWRI: [for_hfx]   Tiles completed:     3116, left:    13462, in progress:     8.
SWRI: [for_hfx]   Tiles completed:     3123, left:    13455, in progress:     8.
SWRI: [for_hfx]   Tiles completed:     3132, left:    13446, in progress:     8.
SWRI: [for_hfx]   Tiles completed:     3139, left:    13439, in progress:     8.
SWRI: [for_hfx]   Tiles completed:     3148, left:    13430, in progress:     8.
SWRI: [for_hfx]   Tiles completed:     3156, left:    13422, in progress:     8.
SWRI: [for_hfx]   Tiles completed:     3163, left:    13415, in progress:     8.
SWRI: [for_hfx]   Tiles completed:     3171, left:    13407, in progress:     8.
SWRI: [for_hfx]   Tiles completed:     3178, left:    13400, in progress:     8.
SWRI: [for_hfx]   Tiles completed:     3185, left:    13393, in progress:     8.
SWRI: [for_hfx]   Tiles completed:     3192, left:    13386, in progress:     8.
SWRI: [for_hfx]   Tiles completed:     3199, left:    13379, in progress:     8.
SWRI: [for_hfx]   Tiles completed:     3207, left:    13371, in progress:     8.
SWRI: [for_hfx]   Tiles completed:     3215, left:    13363, in progress:     8.
SWRI: [for_hfx]   Tiles completed:     3222, left:    13356, in progress:     8.
SWRI: [for_hfx]   Tiles completed:     3229, left:    13349, in progress:     8.
SWRI: [for_hfx]   Tiles completed:     3237, left:    13341, in progress:     8.
SWRI: [for_hfx]   Tiles completed:     3243, left:    13335, in progress:     8.
SWRI: [for_hfx]   Tiles completed:     3251, left:    13327, in progress:     8.
SWRI: [for_hfx]   Tiles completed:     3258, left:    13320, in progress:     8.
SWRI: [for_hfx]   Tiles completed:     3265, left:    13313, in progress:     8.
SWRI: [for_hfx]   Tiles completed:     3274, left:    13304, in progress:     8.
SWRI: [for_hfx]   Tiles completed:     3282, left:    13296, in progress:     8.
SWRI: [for_hfx]   Tiles completed:     3289, left:    13289, in progress:     8.
SWRI: [for_hfx]   Tiles completed:     3297, left:    13281, in progress:     8.
SWRI: [for_hfx]   Tiles completed:     3305, left:    13273, in progress:     8.
SWRI: [for_hfx]   Tiles completed:     3312, left:    13266, in progress:     8.
SWRI: [for_hfx]   Tiles completed:     3319, left:    13259, in progress:     8.
SWRI: [for_hfx]   Tiles completed:     3327, left:    13251, in progress:     8.
SWRI: [for_hfx]   Tiles completed:     3333, left:    13245, in progress:     8.
SWRI: [for_hfx]   Tiles completed:     3340, left:    13238, in progress:     8.
SWRI: [for_hfx]   Tiles completed:     3346, left:    13232, in progress:     8.
SWRI: [for_hfx]   Tiles completed:     3353, left:    13225, in progress:     8.
SWRI: [for_hfx]   Tiles completed:     3361, left:    13217, in progress:     8.
SWRI: [for_hfx]   Tiles completed:     3369, left:    13209, in progress:     8.
SWRI: [for_hfx]   Tiles completed:     3376, left:    13202, in progress:     8.
SWRI: [for_hfx]   Tiles completed:     3384, left:    13194, in progress:     8.
SWRI: [for_hfx]   Tiles completed:     3391, left:    13187, in progress:     8.
SWRI: [for_hfx]   Tiles completed:     3398, left:    13180, in progress:     8.
SWRI: [for_hfx]   Tiles completed:     3404, left:    13174, in progress:     8.
SWRI: [for_hfx]   Tiles completed:     3412, left:    13166, in progress:     8.
SWRI: [for_hfx]   Tiles completed:     3419, left:    13159, in progress:     8.
SWRI: [for_hfx]   Tiles completed:     3426, left:    13152, in progress:     8.
SWRI: [for_hfx]   Tiles completed:     3434, left:    13144, in progress:     8.
SWRI: [for_hfx]   Tiles completed:     3440, left:    13138, in progress:     8.
SWRI: [for_hfx]   Tiles completed:     3447, left:    13131, in progress:     8.
SWRI: [for_hfx]   Tiles completed:     3455, left:    13123, in progress:     8.
SWRI: [for_hfx]   Tiles completed:     3463, left:    13115, in progress:     8.
SWRI: [for_hfx]   Tiles completed:     3470, left:    13108, in progress:     8.
SWRI: [for_hfx]   Tiles completed:     3476, left:    13102, in progress:     8.
SWRI: [for_hfx]   Tiles completed:     3483, left:    13095, in progress:     8.
SWRI: [for_hfx]   Tiles completed:     3491, left:    13087, in progress:     8.
SWRI: [for_hfx]   Tiles completed:     3498, left:    13080, in progress:     8.
SWRI: [for_hfx]   Tiles completed:     3507, left:    13071, in progress:     8.
SWRI: [for_hfx]   Tiles completed:     3513, left:    13065, in progress:     8.
SWRI: [for_hfx]   Tiles completed:     3519, left:    13059, in progress:     8.
SWRI: [for_hfx]   Tiles completed:     3527, left:    13051, in progress:     8.
SWRI: [for_hfx]   Tiles completed:     3535, left:    13043, in progress:     8.
SWRI: [for_hfx]   Tiles completed:     3543, left:    13035, in progress:     8.
SWRI: [for_hfx]   Tiles completed:     3550, left:    13028, in progress:     8.
SWRI: [for_hfx]   Tiles completed:     3558, left:    13020, in progress:     8.
SWRI: [for_hfx]   Tiles completed:     3565, left:    13013, in progress:     8.
SWRI: [for_hfx]   Tiles completed:     3573, left:    13005, in progress:     8.
SWRI: [for_hfx]   Tiles completed:     3581, left:    12997, in progress:     8.
SWRI: [for_hfx]   Tiles completed:     3588, left:    12990, in progress:     8.
SWRI: [for_hfx]   Tiles completed:     3594, left:    12984, in progress:     8.
SWRI: [for_hfx]   Tiles completed:     3602, left:    12976, in progress:     8.
SWRI: [for_hfx]   Tiles completed:     3609, left:    12969, in progress:     8.
SWRI: [for_hfx]   Tiles completed:     3616, left:    12962, in progress:     8.
SWRI: [for_hfx]   Tiles completed:     3623, left:    12955, in progress:     8.
SWRI: [for_hfx]   Tiles completed:     3630, left:    12948, in progress:     8.
SWRI: [for_hfx]   Tiles completed:     3638, left:    12940, in progress:     8.
SWRI: [for_hfx]   Tiles completed:     3645, left:    12933, in progress:     8.
SWRI: [for_hfx]   Tiles completed:     3652, left:    12926, in progress:     8.
SWRI: [for_hfx]   Tiles completed:     3660, left:    12918, in progress:     8.
SWRI: [for_hfx]   Tiles completed:     3665, left:    12913, in progress:     8.
SWRI: [for_hfx]   Tiles completed:     3671, left:    12907, in progress:     8.
SWRI: [for_hfx]   Tiles completed:     3679, left:    12899, in progress:     8.
SWRI: [for_hfx]   Tiles completed:     3687, left:    12891, in progress:     8.
SWRI: [for_hfx]   Tiles completed:     3695, left:    12883, in progress:     8.
SWRI: [for_hfx]   Tiles completed:     3702, left:    12876, in progress:     8.
SWRI: [for_hfx]   Tiles completed:     3710, left:    12868, in progress:     8.
SWRI: [for_hfx]   Tiles completed:     3718, left:    12860, in progress:     8.
SWRI: [for_hfx]   Tiles completed:     3725, left:    12853, in progress:     8.
SWRI: [for_hfx]   Tiles completed:     3732, left:    12846, in progress:     8.
SWRI: [for_hfx]   Tiles completed:     3738, left:    12840, in progress:     8.
SWRI: [for_hfx]   Tiles completed:     3744, left:    12834, in progress:     8.
SWRI: [for_hfx]   Tiles completed:     3752, left:    12826, in progress:     8.
SWRI: [for_hfx]   Tiles completed:     3760, left:    12818, in progress:     8.
SWRI: [for_hfx]   Tiles completed:     3768, left:    12810, in progress:     8.
SWRI: [for_hfx]   Tiles completed:     3776, left:    12802, in progress:     8.
SWRI: [for_hfx]   Tiles completed:     3783, left:    12795, in progress:     8.
SWRI: [for_hfx]   Tiles completed:     3790, left:    12788, in progress:     8.
SWRI: [for_hfx]   Tiles completed:     3797, left:    12781, in progress:     8.
SWRI: [for_hfx]   Tiles completed:     3804, left:    12774, in progress:     8.
SWRI: [for_hfx]   Tiles completed:     3812, left:    12766, in progress:     8.
SWRI: [for_hfx]   Tiles completed:     3817, left:    12761, in progress:     8.
SWRI: [for_hfx]   Tiles completed:     3824, left:    12754, in progress:     8.
SWRI: [for_hfx]   Tiles completed:     3832, left:    12746, in progress:     8.
SWRI: [for_hfx]   Tiles completed:     3840, left:    12738, in progress:     8.
SWRI: [for_hfx]   Tiles completed:     3848, left:    12730, in progress:     8.
SWRI: [for_hfx]   Tiles completed:     3855, left:    12723, in progress:     8.
SWRI: [for_hfx]   Tiles completed:     3863, left:    12715, in progress:     8.
SWRI: [for_hfx]   Tiles completed:     3870, left:    12708, in progress:     8.
SWRI: [for_hfx]   Tiles completed:     3877, left:    12701, in progress:     8.
SWRI: [for_hfx]   Tiles completed:     3884, left:    12694, in progress:     8.
SWRI: [for_hfx]   Tiles completed:     3891, left:    12687, in progress:     8.
SWRI: [for_hfx]   Tiles completed:     3899, left:    12679, in progress:     8.
SWRI: [for_hfx]   Tiles completed:     3907, left:    12671, in progress:     8.
SWRI: [for_hfx]   Tiles completed:     3915, left:    12663, in progress:     8.
SWRI: [for_hfx]   Tiles completed:     3923, left:    12655, in progress:     8.
[...]
|| fourier_apply_cell_backward          :   166        8.47s   0.033%  26.348 ||
|| basis_add_function_to_box            : 829.2k       9.74s   0.038%  ------ ||
|| hfx_grad_ket_dkn_baccum              :    39       10.09s   0.039%  ------ ||
|| cell_grid_extract_box_real           :  1800       10.40s   0.040%  ------ ||
|| hash_table_free                      :    87       10.80s   0.042%  ------ ||
|| hfx_populate_swop_cache_bookkeeping  :     1       13.78s   0.053%  ------ ||
|| swri_build_matrix_2                  : 22365       14.32s   0.055%  ------ ||
|| xc_energy_potential                  :    33       15.92s   0.062%  ------ ||
|| ngwf_gradient_build_batch            :     6       16.03s   0.062%  ------ ||
|| hfx_contract_over_dkn_cc_dkn_get     : 133.9k      16.25s   0.063%  ------ ||
|| hfx_populate_swop_cache_calc         :     1       17.27s   0.067%  ------ ||
|| integrals_locpot_mat_els_batch       :   114       17.75s   0.069%  ------ ||
|| cell_grid_deposit_box_real           :  2921       18.28s   0.071%  ------ ||
|| remote_unpack_ngwf_no_sphere         : 10.26M      19.96s   0.077%  ------ ||
|| ngwf_gradient_batch                  :     6       20.50s   0.079%  ------ ||
|| remote_obtain_dkn_block              : 2.609M      21.82s   0.085%  ------ ||
|| hamiltonian_energy_components        :     1       22.52s   0.087%  ------ ||
|| hash_table_purge_[EXPANSIONS]        :     5       23.23s   0.090%  ------ ||
|| density_batch_row_sums               :   192       23.89s   0.093%  ------ ||
|| swri_metric_mat_eval_swpot           : 398.1k      25.14s   0.097%  ------ ||
|| hfx_comms_dkn                        :    35       26.51s   0.103%  ------ ||
|| density_fftbox_deposit_to_cell       :  2880       31.78s   0.123%  ------ ||
|| swri_metric_mat_cheb_expand          : 398.1k      32.40s   0.126%  ------ ||
|| hfx_calc_expansion_for_q             : 46066       33.89s   0.131%  ------ ||
|| hfx_gradient_term2_qexpand2          : 46066       34.14s   0.132%  ------ ||
|| hfx_accum_q_beta                     : 1.766M      36.79s   0.143%  ------ ||
|| hfx_populate_swop_cache              :     1       37.21s   0.144%  ------ ||
|| hfx_gradient_term2_part0             :   259       42.62s   0.165%  ------ ||
|| hfx_dkn_indep_preparation            :     3       53.52s   0.207%  ------ ||
|| swri_metric_mat_cheb_int_product     : 38.41M      64.61s   0.250%  ------ ||
|| hfx_calc_p_ac                        : 70121       80.60s   0.312%  ------ ||
|| linalg_dgesv                         : 106.8k      85.36s   0.331%  ------ ||
|| swx_my_ngwf_pair_fitting             :     3       95.00s   0.368%  ------ ||
|| swx_expand_my_ngwf_pairs             :     3       95.00s   0.368%  ------ ||
|| hfx_expand_ngwf_pairs                :     3      101.05s   0.392%  ------ ||
|| hfx_gradient_term2_part1             :   259      104.42s   0.405%  ------ ||
|| density_fftbox_interpolate_multiply  :  2880      107.12s   0.415%  ------ ||
|| fourier_apply_box                    :  9944      117.13s   0.454% 388.676 ||
|| hfx_gradient_term2_part2             :   595      121.86s   0.472%  ------ ||
|| potential_apply_to_ngwf_batch        :   114      124.93s   0.484%  ------ ||
|| internal_tile_by_chebs               :  2073      131.58s   0.510%  ------ ||
|| swri_metric_mat_main_loop            :     1      137.35s   0.532%  ------ ||
|| integrals_locpot_dbl_grid            :    19      142.77s   0.553%  ------ ||
|| swri_metric_mat_oc                   :     1      144.32s   0.559%  ------ ||
|| swri_init_container_stage_2          :     1      145.10s   0.562%  ------ ||
|| density_batch_interp_deposit         :   192      183.94s   0.713%  ------ ||
|| hfx_calc_aa_dd_ngwf_prod_in_ppd      : 1.539G     194.56s   0.754%  ------ ||
|| density_on_dbl_grid                  :    32      215.39s   0.835%  ------ ||
|| hamiltonian_lhxc_calculate           :    31      229.38s   0.889%  ------ ||
|| hfx_gradient_term2_imbal             :     1      234.37s   0.908%  ------ ||
|| hfx_all_ad_for_this_b_main           :  1276      290.90s   1.127%  ------ ||
|| hfx_all_ad_for_this_b                :  1276      291.41s   1.129%  ------ ||
|| hfx_calc_expansions_bb_cc            : 82678      513.50s   1.990%  ------ ||
|| hfx_contract_over_dkn_cc_main        : 133.9k     954.82s   3.700%  ------ ||
|| swx_swop_quantity_overlap_ppd_fast   : 106.8k    1493.92s   5.789%  ------ ||
|| hfx_gradient_term2_qexpand           : 46066     1517.59s   5.880%  ------ ||
|| hfx_gradient_term2_part3             :   595     1562.10s   6.053%  ------ ||
|| swx_expansion_2_fast                 : 106.8k    1598.90s   6.195%  ------ ||
|| hfx_gradient_term2                   :     1     2066.08s   8.005%  ------ ||
|| hfx_main_ngwf_grad2                  :     1     2069.98s   8.021%  ------ ||
|| ngwf_gradient_lnv                    :     1     2810.33s  10.889%  ------ ||
|| hfx_main_work_imbalance              :    32     3857.61s  14.947%  ------ ||
|| swri_swop_calc_all_in_ppd_fast       : 1.246G   14227.28s  55.127%  ------ ||
|| hfx_contract_over_dkn_cc_expa_get    : 133.9k   17205.34s  66.666%  ------ ||
|| hfx_contract_over_dkn_cc             :  1276    18279.53s  70.828%  ------ ||
|| lnv_denskernel_optimise_cg           :     2    21761.93s  84.321%  ------ ||
|| hfx_main                             :    32    25032.13s  96.992%  ------ ||
|| hf_exchange_calculate                :    32    25060.25s  97.101%  ------ ||
|| ngwf_cg_optimise                     :     1    25558.17s  99.031%  ------ ||
|| energy_and_forces                    :     1    25806.82s  99.994%  ------ ||
|| total_time                           :     1    25808.37s 100.000%  ------ ||
================================================================================
==================== AVERAGE TIMINGS FROM ALL PROCS (SELF) =====================
++ TAG                                    #calls    cpu time   %total  Gflops ++
++ hfx_populate_swop_cache              :     1        0.00s   0.000%  ------ ++
++ hfx_split_pair_list                  :     3        0.00s   0.000%  ------ ++
++ hfx_determine_my_a_atoms             :     3        0.00s   0.000%  ------ ++
++ hfx_determine_my_d_atoms             :     3        0.00s   0.000%  ------ ++
++ swx_expand_my_ngwf_pairs             :     3        0.00s   0.000%  ------ ++
++ swri_metric_mat_cheb_gen_nodes       :     1        0.00s   0.000%  ------ ++
++ hfx_main_comms_imbalance             :    32        0.00s   0.000%  ------ ++
++ onetep.F90 final imbalance           :     1        0.00s   0.000%  ------ ++
++ pseudopotentials_nonlocal_mat        :     3        0.00s   0.000%  ------ ++
++ hash_table_purge_[TILES]             :     1        0.00s   0.000%  ------ ++
++ sparse_set_to_garbage                :    18        0.00s   0.000%  ------ ++
++ swri_metric_mat_sc                   :     1        0.00s   0.000%  ------ ++
++ hash_table_purge_[TCDKNBLKS_AB]      :     1        0.00s   0.000%  ------ ++
++ ngwf_gradient_coeffs                 :     1        0.00s   0.000%  ------ ++
++ hfx_comms_gradient_imbalance         :     2        0.00s   0.000%  ------ ++
++ hash_table_purge_[DKNBLKS_AB]        :     1        0.00s   0.000%  ------ ++
++ hash_table_purge_[TCDKNBLKS_BA]      :     1        0.00s   0.000%  ------ ++
++ hash_table_purge_[ALISTS]            :     4        0.00s   0.000%  ------ ++
++ vdwcorrection_calculate_energy       :     1        0.00s   0.000%  ------ ++
++ hf_exchange_calculate_imbalance      :    32        0.00s   0.000%  ------ ++
++ hash_table_purge_[VMETRIC]           :     1        0.01s   0.000%  ------ ++
++ hfx_determine_bc_pairs               :     3        0.01s   0.000%  ------ ++
++ swri_metric_mat_allocs               :     1        0.01s   0.000%  ------ ++
++ hfx_determine_ppd_list               :     3        0.01s   0.000%  ------ ++
++ swri_metric_mat_main_loop            :     1        0.01s   0.000%  ------ ++
++ pseudopotentials_local_on_grid       :     1        0.01s   0.000%  ------ ++
++ hfx_all_ad_for_this_b                :  1276        0.01s   0.000%  ------ ++
++ sparse_embed_hotelling_invert_embed  :     3        0.01s   0.000%  ------ ++
++ hash_table_purge_[NGWFS]             :    10        0.02s   0.000%  ------ ++
++ swri_metric_mat_dispatch             : 374.4k       0.02s   0.000%  ------ ++
++ hash_table_purge_[AKETS_DKN_LOC]     :     2        0.02s   0.000%  ------ ++
++ basis_extract_function_from_box      :   357        0.02s   0.000%  ------ ++
++ ngwfs_initialise_from_radial         :     1        0.02s   0.000%  ------ ++
++ hash_table_purge_[XAB]               :    32        0.03s   0.000%  ------ ++
++ swri_metric_mat_oc                   :     1        0.03s   0.000%  ------ ++
++ onetep.F90 main loop imbalance       :     1        0.04s   0.000%  ------ ++
++ swri_metric_mat_home_sws             :     1        0.04s   0.000%  ------ ++
++ hfx_main_ngwf_grad1                  :     1        0.04s   0.000%  ------ ++
++ remote_pack_ngwf                     :  2142        0.05s   0.000%  ------ ++
++ swri_metric_mat_consistency          :  2073        0.05s   0.000%  ------ ++
++ hfx_comms_xmatrix_imbalance          :    32        0.05s   0.000%  ------ ++
++ neighbour_list_populate              :     5        0.07s   0.000%  ------ ++
++ ewald_calculate_energy               :     1        0.07s   0.000%  ------ ++
++ hash_table_purge_[COEFFS]            :     4        0.07s   0.000%  ------ ++
++ swri_metric_mat_wait_req_master      :  2252        0.63s   0.002%  ------ ++ (1 procs only)
++ integrals_locpot_dbl_grid            :    19        0.09s   0.000%  ------ ++
++ hfx_comms_ngwfs                      :    12        0.11s   0.000%  ------ ++
++ hash_table_purge_[DLISTS]            :     4        0.11s   0.000%  ------ ++
++ lnv_gradient_norm                    :    16        0.11s   0.000%  ------ ++
++ hamiltonian_energy_components        :     1        0.12s   0.000%  ------ ++
++ swri_metric_mat_wait_send            :  2073        0.13s   0.001%  ------ ++
++ sparse_init                          :     1        0.14s   0.001%  ------ ++
++ palser_mano_kernel_optimise          :     1        0.15s   0.001%  ------ ++
++ hash_table_free                      :    87        0.15s   0.001%  ------ ++
++ hash_table_purge_[PPD_NGWFS_DD]      :     4        0.16s   0.001%  ------ ++
++ swri_metric_mat_oc_work_imbalance    :     2        0.17s   0.001%  ------ ++
++ hfx_determine_alists                 :     3        0.17s   0.001%  ------ ++
++ hash_table_purge_[AKETS_DKN_MY]      :     2        0.18s   0.001%  ------ ++
++ density_init_guess_real              :     1        0.21s   0.001%  ------ ++
++ hartree_on_grid                      :    33        0.23s   0.001%  ------ ++
++ hfx_gradient_term2_qexpand2          : 46066        0.25s   0.001%  ------ ++
++ hash_table_purge_[SWOP_HITS]         :     1        0.25s   0.001%  ------ ++
++ pseudo_make_structure_factor         :     1        0.26s   0.001%  ------ ++
++ hfx_main_ngwf_grad2                  :     1        0.26s   0.001%  ------ ++
++ hfx_comms_metric                     :     3        0.28s   0.001%  ------ ++
++ hfx_gradient_term2_qexpand           : 46066        0.33s   0.001%  ------ ++
++ projectors_func_ovlp_box             :     3        0.37s   0.001%  ------ ++
++ ngwf_cg_optimise                     :     1        0.43s   0.002%  ------ ++
++ hfx_all_ad_for_this_b_store          :  1276        0.49s   0.002%  ------ ++
++ kernel_fix                           :    16        0.50s   0.002%  ------ ++
++ hfx_comms_xmatrix                    :    32        0.53s   0.002%  ------ ++
++ function_ops_brappd_ketppd           :     3        0.53s   0.002%  ------ ++
++ kernel_purify                        :    48        0.55s   0.002%  ------ ++
++ energy_and_force_init_cell           :     1        0.57s   0.002%  ------ ++
++ hf_exchange_calculate                :    32        0.68s   0.003%  ------ ++
++ hash_table_purge_[DKNBLKS_CD]        :    32        0.71s   0.003%  ------ ++
++ hfx_gradient_term2                   :     1        0.71s   0.003%  ------ ++
++ swri_init_container_stage_2          :     1        0.77s   0.003%  ------ ++
++ sparse_trace                         :  1180        0.83s   0.003%  ------ ++
++ projectors_init_fftbox_recip         :     9        0.87s   0.003%  ------ ++
++ main_program_(onetep.F90)            :     1        0.94s   0.004%  ------ ++
++ remote_obtain_ngwf                   :  6275        0.99s   0.004%  ------ ++
++ hfx_gradient_term2_qexpand3          : 46066        1.20s   0.005%  ------ ++ (!) overhead: ~   9.7%
++ hfx_populate_swop_cache_imbalance    :     2        1.21s   0.005%  ------ ++
++ hash_table_list                      :  3543        1.21s   0.005%  ------ ++
++ hfx_dkn_indep_preparation            :     3        1.29s   0.005%  ------ ++
++ hash_table_purge_[SWOPS_IN_PPDS]     :     3        1.41s   0.005%  ------ ++
++ swri_vmatrixblock_sc                 : 16956        1.42s   0.005%  ------ ++ (!) overhead: ~   3.0%
++ hash_table_purge_[PPD_PRODUCTS]      :     4        1.42s   0.006%  ------ ++
++ integrals_kinetic                    :     3        1.43s   0.006%  ------ ++
++ lnv_denskernel_optimise_cg           :     2        1.45s   0.006%  ------ ++
++ hfx_main                             :    32        1.51s   0.006%  ------ ++
++ basis_copy_function_to_box           :  4998        1.53s   0.006%  ------ ++
++ hfx_comms_gradient                   :     2        1.58s   0.006%  ------ ++
++ sw_init                              :     1        1.62s   0.006%  ------ ++
++ swx_my_ngwf_pair_fitting             :     3        1.68s   0.006%  ------ ++
++ hamiltonian_lhxc_calculate           :    31        1.81s   0.007%  ------ ++
++ remote_obtain_matrix_block           : 12556        2.02s   0.008%  ------ ++
++ swri_metric_mat_RSH_rotation         :  2073        2.14s   0.008%  ------ ++
++ hfx_gradient_term2_part3             :   595        2.14s   0.008%  ------ ++
++ hfx_gradient                         :     2        2.16s   0.008%  ------ ++
++ ngwf_gradient_lnv                    :     1        2.51s   0.010%  ------ ++
++ energy_and_forces                    :     1        2.65s   0.010%  ------ ++
++ hfx_determine_a_ppd_list_for_b       :  1784        2.86s   0.011%  ------ ++
++ ngwf_gradient_batch                  :     6        3.03s   0.012%  ------ ++
++ xc_energy_potential                  :    33        3.07s   0.012%  ------ ++
++ projectors_gradient_batch            :     6        3.67s   0.014%  ------ ++
++ swri_metric_mat_wait_req_worker      :  2048        4.26s   0.016%  ------ ++ (7 procs only)
++ remote_unpack_ngwf                   : 429.3k       3.78s   0.015%  ------ ++ (!) overhead: ~  28.9%
++ sparse_product                       :  1053        3.83s   0.015%  ------ ++
++ ngwf_gradient_build_batch            :     6        3.86s   0.015%  ------ ++
++ hfx_comms_dkn                        :    35        4.69s   0.018%  ------ ++
++ hfx_calc_aa_dd_ngwf_prods_in_ppds    :     3        5.13s   0.020%  ------ ++
++ internal_tile_by_chebs               :  2073        5.36s   0.021%  ------ ++
++ fourier_apply_box_pair               :   670        5.56s   0.022% 112.386 ++
++ hfx_determine_dlists                 :     3        5.57s   0.022%  ------ ++
++ hfx_populate_swop_cache_sort         :     1        5.82s   0.023%  ------ ++
++ basis_dot_function_with_box          : 476.7k       5.83s   0.023%  ------ ++ (!) overhead: ~  20.8%
++ hfx_expand_ngwf_pairs                :     3        6.05s   0.023%  ------ ++
++ swri_metric_mat_symmetry             :     1        6.72s   0.026%  ------ ++
++ density_on_dbl_grid                  :    32        7.56s   0.029%  ------ ++
++ fourier_apply_cell_forward           :   165        8.39s   0.033%  26.452 ++
++ fourier_apply_cell_backward          :   166        8.47s   0.033%  26.348 ++
++ basis_add_function_to_box            : 829.2k       9.74s   0.038%  ------ ++ (!) overhead: ~  21.6%
++ hfx_grad_ket_dkn_baccum              :    39       10.09s   0.039%  ------ ++
++ cell_grid_extract_box_real           :  1800       10.40s   0.040%  ------ ++
++ integrals_locpot_mat_els_batch       :   114       12.79s   0.050%  ------ ++
++ swri_build_matrix_2                  : 22365       12.90s   0.050%  ------ ++
++ hfx_populate_swop_cache_bookkeeping  :     1       13.04s   0.051%  ------ ++
++ density_fftbox_deposit_to_cell       :  2880       13.53s   0.052%  ------ ++
++ hfx_populate_swop_cache_calc         :     1       14.18s   0.055%  ------ ++
++ density_batch_row_sums               :   192       16.02s   0.062%  ------ ++
++ hfx_contract_over_dkn_cc_dkn_get     : 133.9k      16.25s   0.063%  ------ ++ (!) overhead: ~   2.1%
++ cell_grid_deposit_box_real           :  2921       18.28s   0.071%  ------ ++
++ swx_expansion_2_fast                 : 106.8k      19.61s   0.076%  ------ ++
++ remote_unpack_ngwf_no_sphere         : 10.26M      19.96s   0.077%  ------ ++ (!) overhead: ~ 130.6%
++ remote_obtain_dkn_block              : 2.609M      21.82s   0.085%  ------ ++ (!) overhead: ~  30.4%
++ hfx_calc_expansion_for_q             : 46066       23.09s   0.089%  ------ ++
++ hash_table_purge_[EXPANSIONS]        :     5       23.23s   0.090%  ------ ++
++ hfx_gradient_term2_part1             :   259       23.84s   0.092%  ------ ++
++ hfx_gradient_term2_part0             :   259       23.90s   0.093%  ------ ++
++ swri_metric_mat_eval_swpot           : 398.1k      25.14s   0.097%  ------ ++ (!) overhead: ~   4.0%
++ swri_metric_mat_cheb_expand          : 398.1k      32.40s   0.126%  ------ ++ (!) overhead: ~   3.1%
++ hfx_all_ad_for_this_b_main           :  1276       33.39s   0.129%  ------ ++
++ density_fftbox_interpolate_multiply  :  2880       36.78s   0.143%  ------ ++
++ hfx_accum_q_beta                     : 1.766M      36.79s   0.143%  ------ ++ (!) overhead: ~  12.2%
++ density_batch_interp_deposit         :   192       51.24s   0.199%  ------ ++
++ potential_apply_to_ngwf_batch        :   114       61.68s   0.239%  ------ ++
++ swri_metric_mat_cheb_int_product     : 38.41M      64.61s   0.250%  ------ ++ (!) overhead: ~ 151.1%
++ hfx_gradient_term2_part2             :   595       74.66s   0.289%  ------ ++
++ hfx_calc_p_ac                        : 70121       80.17s   0.311%  ------ ++
++ linalg_dgesv                         : 106.8k      85.36s   0.331%  ------ ++
++ hfx_contract_over_dkn_cc             :  1276      103.13s   0.400%  ------ ++
++ fourier_apply_box                    :  9944      117.13s   0.454% 388.676 ++
++ hfx_calc_aa_dd_ngwf_prod_in_ppd      : 1.539G     194.56s   0.754%  ------ ++ (!) overhead: ~  20.1%
++ hfx_calc_expansions_bb_cc            : 82678      199.95s   0.775%  ------ ++
++ hfx_gradient_term2_imbal             :     1      234.37s   0.908%  ------ ++
++ swx_swop_quantity_overlap_ppd_fast   : 106.8k     482.92s   1.871%  ------ ++
++ hfx_contract_over_dkn_cc_main        : 133.9k     954.82s   3.700%  ------ ++
++ hfx_main_work_imbalance              :    32     3857.61s  14.947%  ------ ++
++ hfx_contract_over_dkn_cc_expa_get    : 133.9k    4341.07s  16.820%  ------ ++
++ swri_swop_calc_all_in_ppd_fast       : 1.246G   14227.28s  55.127%  ------ ++
================================================================================
(!) WARNING: You're wasting precious cycles calling timer. 
             Each pair of timer_clock calls itself cost   2.54 microseconds!
Overhead of generating timer report: 
- 0 ms averaging over threads,
- 4 ms ensuring consistency across MPI ranks,
- 2 ms printing in order.

Job completed: 12-01-2023 23:09 (-0000)

onetep_launcher: ONETEP seems to have finished correctly (zero exit code).
