==================================================================================
It's Wed Jan 25 12:01:58 GMT 2023.
*** Starting onetep_launcher (node red369.cluster.local, PIDs 67961 67962)...
    - ONETEP arguments: sc05_protonated_shifted.dat
    - Current directory: /home/hpc/benchmarks-2022/ONETEP/data_input/32_nodes/testcase2
    - Launcher executable directory: /mainfs/home/hpc/benchmarks-2022/ONETEP/source/utils
    - (-e) ONETEP executable specified through command-line: /home/hpc/benchmarks-2022/ONETEP/source/bin/onetep.iridis5.intel21.omp.scalapack
      ... trying /home/hpc/benchmarks-2022/ONETEP/source/bin/onetep.iridis5.intel21.omp.scalapack
          -> looks OK
*** Setting up environment...
    - (-s) Process stack size: unlimited
    - (-t) OMP_NUM_THREADS: 20
    - (-o) OMP_STACKSIZE: 64M
    - (-c) Maximum core file size: 2048000
    - (-d) decfort_dump_flag: n
    - (-m) I_MPI_OFA_TRANSLATION_CACHE: 0
    - (-m) I_MPI_DAPL_TRANSLATION_CACHE: 0
    - (-m) I_MPI_DAPL_UD_TRANSLATION_CACHE: 0
*** Starting ONETEP...
    - /home/hpc/benchmarks-2022/ONETEP/source/bin/onetep.iridis5.intel21.omp.scalapack sc05_protonated_shifted.dat
=================================================================================
_________________________________________________________________________________
[0] MPI startup(): I_MPI_DAPL_UD_TRANSLATION_CACHE variable has been removed from the product, its value is ignored

[0] MPI startup(): I_MPI_OFA_TRANSLATION_CACHE variable has been removed from the product, its value is ignored

[0] MPI startup(): I_MPI_DAPL_TRANSLATION_CACHE variable has been removed from the product, its value is ignored

 +---------------------------------------------------------------+
 |                                                               |
 |        ####### #     # ####### ####### ####### ######         |
 |        #     # ##    # #          #    #       #     #        |
 |        #     # # #   # #          #    #       #     #        |
 |        #     # #  #  # #####      #    #####   ######         |
 |        #     # #   # # #          #    #       #              |
 |        #     # #    ## #          #    #       #              |
 |        ####### #     # #######    #    ####### #              |
 |                                                               |
 |        Linear-Scaling Ab Initio Total Energy Program          |
 |                                                               |
 |          Release for academic collaborators of ODG            |
 |                                             Version 6.1.12.0  |
 |                                                               |
 +---------------------------------------------------------------+
 |                                                               |
 |  Authors:                                                     |
 |  Jacek Dziedzic, Peter D. Haynes, Nicholas D. M. Hine,        |
 |  Arash A. Mostofi, Mike C. Payne and Chris-Kriton Skylaris    |
 |                                                               |
 |  Contributors:                                                |
 |  J. Aarons, L. Andrinopoulos, P. W. Avraam, R. A. Bell,       |
 |  A. Bhandari, G. A. Bramley, R. J. Charlton, S. J. Clark,     |
 |  R. J. Clements, G. C. Constantinescu, F. Corsetti,           |
 |  N. Corsini, O. Dieguez, S. M. M. Dubois, K. K. B. Duff,      |
 |  J. M. Escartin, A. Greco, H. Helal, Q. O. Hill, L. P. Lee,   |
 |  J.-H. Li, E. B. Linscott, G. Moynihan, D. D. O`Regan,        |
 |  O. K. Okan, M. J. S. Phipps, C. J. Pickard,                  |
 |  J. C. A. Prentice, M. I. J. Probert, L. E. Ratcliff,         |
 |  M. Robinson, A. Ruiz Serrano, J. S. Spencer, E. W. Tait,     |
 |  G. Teobaldi, D. Turban, V. Vitale, K. A. Wilkinson,          |
 |  C. Weber, J. C. Womack, N. Yeung and T. J. Zuehlsdorff       |
 |                                                               |
 |                                   Copyright (c) 2004-2023     |
 |                                                               |
 |  Please cite:                                                 |
 |  "The ONETEP linear-scaling density functional theory program"|
 |   J. Chem. Phys. 152(17) 174111 (2020)                        |
 |                                                               |
 |          in all publications arising from your use of ONETEP. |
 |                                                               |
 +---------------------------------------------------------------+
 |                                                               |
 |   ONETEP is based on developments described in the following  |
 |   publications:                                               |
 |                                                               |
 |  "Nonorthogonal generalized Wannier function pseudopotential  |
 |   plane-wave method".                                         |
 |   C.-K. Skylaris, A. A. Mostofi, P. D. Haynes, O. Dieguez,    |
 |   M. C. Payne.                                                |
 |   Phys. Rev. B 66 035119 (2002).                              |
 |                                                               |
 |  "Preconditioned iterative minimization for linear-scaling    |
 |   electronic structure calculations".                         |
 |   A. A. Mostofi, P. D. Haynes, C.-K. Skylaris, M. C. Payne.   |
 |   J. Chem. Phys. 119(17), pp.8842-8848 (2003).                |
 |                                                               |
 |  "Total-energy calculations on a real space grid with         |
 |   localized functions and a plane-wave basis".                |
 |   A. A. Mostofi, C.-K. Skylaris, P. D. Haynes, M. C. Payne.   |
 |   Comput. Phys. Commun. 147, pp.788-802 (2002).               |
 |                                                               |
 |  "Accurate kinetic energy evaluation in electronic structure  |
 |   calculations with localized functions on real space grids"  |
 |   C.-K. Skylaris, A. A. Mostofi, P. D. Haynes, C. J. Pickard, |
 |   M. C. Payne.                                                |
 |   Comput. Phys. Commun. 140, pp.315-322 (2001).               |
 |                                                               |
 |  "Accurate ionic forces and geometry optimization in linear-  |
 |   scaling density-functional theory with local orbitals"      |
 |   N. D. M. Hine, M. Robinson, P. D. Haynes, C.-K. Skylaris,   |
 |   M. C. Payne, and A. A. Mostofi.                             |
 |   Phys. Rev. B 83 195102 (2011).                              |
 |                                                               |
 +---------------------------------------------------------------+

Job started: 25-01-2023 12:02 (-0000)
 
Reading parameters from file "sc05_protonated_shifted.dat" ...

WARNING: "cutoff_energy" not specified, but "psinc_spacing" specified.
         Using the latter to set the KE cutoff energy to  826.82697eV,
         thus *overriding* the default.

... done

If your calculation crashes here, before "Checking processes and threads..."
is displayed, then your stack size is insufficient.
If so, use "ulimit -s unlimited" at runtime.
You can disable this check with "check_stack_size F".

Checking processes and threads...
   Determining the default number of threads...
      No default threads set at compilation time: defaulting to 1.
      OpenMP library call suggests 20 threads.
      Hybrid MPI-OpenMP compilation detected.
      Number of MPI processes > 1.
      OMP_NUM_THREADS environment variable present and
      its value matches the one obtained from the OpenMP library call.
      Using this value as default.
      Default threads: 20
      Default applies to threads_max and threads_num_fftboxes.
      Settings in the input file override this default.
   ... done

   Running with 64 MPI processes.
   There are 2 MPI processes running on the same node as the root process.
   Each MPI process is using: 
               1 threads for simulation cell FFTs.
               1 threads for parallel FFT box operations.
               5 threads for loops over batched FFT box operations.
              20 threads in other parallel regions.
... done

Basic input checks...
BC: +++++++++++++++ Summary of boundary conditions ++++++++++++++
BC: |       Component       |     Keyword     |   Periodicity   |
BC: |                       |                 |     X  Y  Z [1] |
BC: |-----------------------------------------------------------|
BC: | Ion-ion               | ion_ion_bc [2]  |     P  P  P     |
BC: | Local pseudopotential | pspot_bc [3]    |     P  P  P     |
BC: | Hartree-Fock exchange | hfx_bc          |     P  P  P     |
BC: | Van der Waals         | vdw_bc          |     P  P  P     |
BC: +++++++++++++++++++++++++++++++++++++++++++++++++++++++++++++
BC: P: Periodic, O: Open.
BC: [1] Not strictly along X, Y, Z but rather along lattice vectors A1, A2, A3.
BC: [2] Also affected by: pbc_correction_cutoff, cutoff_coulomb_type,
BC:     is_smeared_ion_rep, is_implicit_solvent, openbc_ion_ion.
BC: [3] Also affected by: is_smeared_ion_rep, is_implicit_solvent, openbc_pspot.

WARNING: The number of FFT boxes in a batch is not a multiple of the number of
OpenMP threads. Consider changing fftbox_batch_size.
... done

Reading geometry and species blocks from file "sc05_protonated_shifted.dat" ...
  <species_atomic_set> block not found: NGWF initialisation set to SOLVE
    
  PSINC grid spacing along a1 set to   0.500000000000a0 from input file.
  PSINC grid spacing along a2 set to   0.500000000000a0 from input file.
  PSINC grid spacing along a3 set to   0.500000000000a0 from input file.
  Number of PPD points along a1 set to 5 from input file.
  Number of PPD points along a2 set to 5 from input file.
  Number of PPD points along a3 set to 5 from input file.
... done


--------------------------------------------------------------------------------
---------------------------------- INPUT FILE ----------------------------------
--------------------------------------------------------------------------------

THREADS_NUM_FFTBOXES 5                                                          
charge +12                                                                      
hfx_memory_limit 50000                                                          
ppd_npoints 5 5 5                                                               
timings_level 3                                                                 
%block swri                                                                     
for_hfx 3 12 V 12 12 E2                                                         
%endblock swri                                                                  
%block species_swri-for_hfx                                                     
N                                                                               
H                                                                               
C                                                                               
O                                                                               
S                                                                               
%endblock species_swri-for_hfx                                                  
hfx_use_ri for_hfx                                                              
hfx_max_l 3                                                                     
hfx_max_q 12                                                                    
hfx_metric ELECTROSTATIC                                                        
hfx_cutoff 20.0 bohr                                                            
ngwf_threshold_orig : 0.000002                                                  
kernel_cutoff : 50.0                                                            
elec_cg_max 0                                                                   
occ_mix 1.0                                                                     
xc_functional B3LYP                                                             
dispersion 1                                                                    
minit_lnv 8                                                                     
maxit_lnv 8                                                                     
maxit_ngwf_cg 1                                                                 
output_detail VERBOSE                                                           
do_properties F                                                                 
cube_format F                                                                   
write_denskern F                                                                
write_tightbox_ngwfs F                                                          
write_density_plot F                                                            
lumo_dens_plot -1                                                               
homo_dens_plot -1                                                               
%block species                                                                  
N   N   7 4 8.0                                                                 
H   H   1 1 8.0                                                                 
C   C   6 4 8.0                                                                 
S   S  16 4 8.0                                                                 
O   O   8 4 8.0                                                                 
%endblock species                                                               
%block species_pot                                                              
N   N_00.recpot                                                                 
H   H_04.recpot                                                                 
C   C_01.recpot                                                                 
S   S_00.recpot                                                                 
O   O_02.recpot                                                                 
%endblock species_pot                                                           
%block lattice_cart                                                             
70.000   0.000   0.000                                                          
0.000  70.000   0.000                                                           
0.000   0.000  70.000                                                           
%endblock lattice_cart                                                          
%block positions_abs                                                            
     Hash =   000000598578562997381262
%endblock positions_abs                                                         
psinc_spacing 0.5 0.5 0.5                                                       

--------------------------------------------------------------------------------
-------------------------------- END INPUT FILE --------------------------------
--------------------------------------------------------------------------------


 
 ESDF WARNING(1): "kernelcutoff" (esdf_physical) has no units. Assume "bohr".
<<<<<<<<<<<<<<<<<<<<<<<<<<<<<<<<< Full system >>>>>>>>>>>>>>>>>>>>>>>>>>>>>>>>>>
<<<<<<<<<<<<<<<<<<<<<<<<< Pseudopotential information >>>>>>>>>>>>>>>>>>>>>>>>>>
File: N_00.recpot [ 2001 points up to Gmax=  52.9 (1/bohr)]
  Atomic number:  7;  ionic charge:  5.000000
    Shell 1: l = 0; rc = 1.48 bohr
File: C_01.recpot [ 2001 points up to Gmax=  52.9 (1/bohr)]
  Atomic number:  6;  ionic charge:  4.000000
    Shell 1: l = 0; rc = 1.48 bohr
File: O_02.recpot [ 2001 points up to Gmax=  52.9 (1/bohr)]
  Atomic number:  8;  ionic charge:  6.000000
    Shell 1: l = 0; rc = 1.31 bohr
File: H_04.recpot [ 2001 points up to Gmax=  52.9 (1/bohr)]
  Atomic number:  1;  ionic charge:  1.000000
    Local potential
File: S_00.recpot [ 2001 points up to Gmax=  52.9 (1/bohr)]
  Atomic number: 16;  ionic charge:  6.000000
    Shell 1: l = 0; rc = 1.90 bohr
    Shell 2: l = 2; rc = 1.84 bohr
<<<<<<<<<<<<<<<<<<<<<<<<<<<<<<<<<<<<<<<<>>>>>>>>>>>>>>>>>>>>>>>>>>>>>>>>>>>>>>>>

-------------------------- Atom counting information ---------------------------
Symbol    Natoms    Nngwfs    Nprojs
  N         20        80        20
  C         92       368        92
  O         21        84        21
  H        178       178         0
  S          1         4         6
.......   ......    ......    ......
Totals:    312       714       139
--------------------------------------------------------------------------------

=============================== PSINC grid sizes ===============================
                      Simulation cell:  140 x 140 x 140
                              FFT-box:  105 x 105 x 105
                                  PPD:    5 x   5 x   5
Grid space d1=  0.500000000000a0 (KE cutoff=  30.38533Eh = 826.82697eV)
Grid space d2=  0.500000000000a0 (KE cutoff=  30.38533Eh = 826.82697eV)
Grid space d3=  0.500000000000a0 (KE cutoff=  30.38533Eh = 826.82697eV)
================================================================================

********************* Fourier parallelisation information **********************
       Coarse grid (whole simulation cell) dimensions:    140   140   140
          Real-space ('12') slabs/proc (min max mean):      2     3     2
         Recip-space ('23') slabs/proc (min max mean):      1     2     1
********************************************************************************

********************* Fourier parallelisation information **********************
       Double grid (whole simulation cell) dimensions:    280   280   280
          Real-space ('12') slabs/proc (min max mean):      4     5     4
         Recip-space ('23') slabs/proc (min max mean):      2     3     2
********************************************************************************

Atom SCF Calculation for N  : Z (AE atom) =   7 : Z (PS atom) =   5
Config String:
Orbitals (num,occ):  2     2.00 3.00
Orbitals   (num,l):  2        0    1
Real-space Grid (nr,dr,rmax): 1223    0.0065466448    8.0000000000
Spherical Bessel Basis (nsws,lmax,cutoff):   48    1  182.3119948938
Confining potential (l,width,scale):  0    3.0000000000  100.0000000000
Confining potential (l,width,scale):  1    3.0000000000  100.0000000000
  1         -4.6325111195   -2.8733018997    7.0523823883   -1.5654639872
  2         -9.7351620650   -1.6022876474    8.2041073874   -1.8094347699
  3         -9.1003439584   -1.8391229933    7.9485113934   -1.7614559139
  4         -9.3105491824   -1.7985182208    7.9916936238   -1.7725794173
  5         -9.2745062116   -1.8141195512    7.9751056135   -1.7698643035
  6         -9.2766693537   -1.8160424936    7.9730912778   -1.7698346295
  7         -9.2771890287   -1.8168588199    7.9722363740   -1.7698217193
  8         -9.2774441157   -1.8173439088    7.9717288568   -1.7698189384
  9         -9.2775615513   -1.8176324342    7.9714272792   -1.7698202193
 10         -9.2776100777   -1.8178040922    7.9712480301   -1.7698227873
 11         -9.2776257384   -1.8179062304    7.9711414823   -1.7698254390
 12         -9.2776268797   -1.8179670086    7.9710781467   -1.7698277197
 13         -9.2776224934   -1.8180031787    7.9710404960   -1.7698295176
 14         -9.2776167424   -1.8180247066    7.9710181127   -1.7698308644
 15         -9.2776124450   -1.8180349585    7.9710074662   -1.7698316448
 16         -9.2776087651   -1.8180418916    7.9710002727   -1.7698322427
 17         -9.2776057370   -1.8180465807    7.9709954119   -1.7698326962
 18         -9.2776033130   -1.8180497523    7.9709921273   -1.7698330377
 19         -9.2776014115   -1.8180518977    7.9709899076   -1.7698332930
 20         -9.2775999425   -1.8180533490    7.9709884075   -1.7698334828
 21         -9.2775988213   -1.8180543309    7.9709873937   -1.7698336233
 22         -9.2775979740   -1.8180549952    7.9709867086   -1.7698337269
 23         -9.2775973387   -1.8180554447    7.9709862455   -1.7698338029
 24         -9.2775968657   -1.8180557488    7.9709859325   -1.7698338586
 25         -9.2775965154   -1.8180559547    7.9709857209   -1.7698338992
 26         -9.2775962574   -1.8180560939    7.9709855779   -1.7698339288
 27         -9.2775960680   -1.8180561882    7.9709854812   -1.7698339503
 28         -9.2775959296   -1.8180562520    7.9709854159   -1.7698339659
 29         -9.2775958288   -1.8180562952    7.9709853717   -1.7698339771
 30         -9.2775957555   -1.8180563245    7.9709853418   -1.7698339853
Atom SCF converged after  30 iterations to a total energy of     -9.27759576

Atom SCF Calculation for H  : Z (AE atom) =   1 : Z (PS atom) =   1
Config String:
Orbitals (num,occ):  1     1.00
Orbitals   (num,l):  1        0
Real-space Grid (nr,dr,rmax): 1223    0.0065466448    8.0000000000
Spherical Bessel Basis (nsws,lmax,cutoff):   48    0  182.3119948938
Confining potential (l,width,scale):  0    3.0000000000  100.0000000000
  1         -0.3079178597   -0.1847795862    0.2820952955   -0.1977712839
  2         -0.3685885669   -0.1881372068    0.2800585157   -0.1985632125
  3         -0.3972300880   -0.1884802289    0.2798203946   -0.1998878419
  4         -0.4080696630   -0.1888188926    0.2794872670   -0.2003448885
  5         -0.4121177049   -0.1890445535    0.2792475482   -0.2004731994
  6         -0.4136579283   -0.1891622112    0.2791189072   -0.2005066289
  7         -0.4142565085   -0.1892168764    0.2790583097   -0.2005150560
  8         -0.4144930541   -0.1892408136    0.2790315799   -0.2005171566
  9         -0.4145876168   -0.1892509625    0.2790202004   -0.2005176839
 10         -0.4146257028   -0.1892551880    0.2790154514   -0.2005178202
 11         -0.4146411140   -0.1892569291    0.2790134918   -0.2005178575
 12         -0.4146473678   -0.1892576422    0.2790126886   -0.2005178687
 13         -0.4146499099   -0.1892579333    0.2790123606   -0.2005178725
 14         -0.4146509445   -0.1892580519    0.2790122269   -0.2005178739
 15         -0.4146513657   -0.1892581001    0.2790121725   -0.2005178744
 16         -0.4146515373   -0.1892581197    0.2790121504   -0.2005178747
 17         -0.4146516073   -0.1892581277    0.2790121414   -0.2005178748
Atom SCF converged after  17 iterations to a total energy of     -0.41465161

Atom SCF Calculation for C  : Z (AE atom) =   6 : Z (PS atom) =   4
Config String:
Orbitals (num,occ):  2     2.00 2.00
Orbitals   (num,l):  2        0    1
Real-space Grid (nr,dr,rmax): 1223    0.0065466448    8.0000000000
Spherical Bessel Basis (nsws,lmax,cutoff):   48    1  182.3119948938
Confining potential (l,width,scale):  0    3.0000000000  100.0000000000
Confining potential (l,width,scale):  1    3.0000000000  100.0000000000
  1         -5.4068284531   -0.9645008545    4.5135247285   -1.1733979228
  2         -5.0358899914   -1.1382877612    4.3226829410   -1.1289974960
  3         -5.1282560308   -1.1377295682    4.3231957437   -1.1311794228
  4         -5.1305167959   -1.1442952602    4.3160990229   -1.1302854828
  5         -5.1333795592   -1.1469546992    4.3132219447   -1.1300656900
  6         -5.1347137429   -1.1482342939    4.3118371412   -1.1299954135
  7         -5.1352377904   -1.1488715133    4.3111475261   -1.1299732413
  8         -5.1354162605   -1.1491900883    4.3108028311   -1.1299682784
  9         -5.1354602641   -1.1493491753    4.3106307680   -1.1299690189
 10         -5.1354578606   -1.1494284919    4.3105450284   -1.1299711304
 11         -5.1354434307   -1.1494679812    4.3105023700   -1.1299731343
 12         -5.1354319014   -1.1494836903    4.3104854139   -1.1299743497
 13         -5.1354224754   -1.1494930733    4.3104752921   -1.1299752605
 14         -5.1354152222   -1.1494986751    4.3104692533   -1.1299759225
 15         -5.1354098529   -1.1495020176    4.3104656526   -1.1299763933
 16         -5.1354059835   -1.1495040108    4.3104635070   -1.1299767228
 17         -5.1354032493   -1.1495051987    4.3104622293   -1.1299769504
 18         -5.1354013460   -1.1495059062    4.3104614691   -1.1299771061
 19         -5.1354000367   -1.1495063273    4.3104610171   -1.1299772117
 20         -5.1353991444   -1.1495065777    4.3104607485   -1.1299772828
 21         -5.1353985412   -1.1495067265    4.3104605891   -1.1299773304
 22         -5.1353981359   -1.1495068148    4.3104604946   -1.1299773622
 23         -5.1353978652   -1.1495068672    4.3104604386   -1.1299773832
 24         -5.1353976853   -1.1495068983    4.3104604055   -1.1299773971
 25         -5.1353975661   -1.1495069166    4.3104603860   -1.1299774063
 26         -5.1353974874   -1.1495069275    4.3104603744   -1.1299774123
Atom SCF converged after  26 iterations to a total energy of     -5.13539749

Atom SCF Calculation for S  : Z (AE atom) =  16 : Z (PS atom) =   6
Config String:
Orbitals (num,occ):  2     2.00 4.00
Orbitals   (num,l):  2        0    1
Real-space Grid (nr,dr,rmax): 1223    0.0065466448    8.0000000000
Spherical Bessel Basis (nsws,lmax,cutoff):   48    2  182.3119948938
Confining potential (l,width,scale):  0    3.0000000000  100.0000000000
Confining potential (l,width,scale):  1    3.0000000000  100.0000000000
  1        -12.3994158861   -0.6043175798   10.1554306392   -1.9817841191
  2         -9.2418411382   -2.3141303769    7.9217470137   -1.5702031266
  3         -9.8034168394   -1.9270168218    8.3206936605   -1.6512330357
  4         -9.7677535592   -1.9251144655    8.3232159042   -1.6542649614
  5         -9.7647675002   -1.9162211199    8.3330021357   -1.6576454382
  6         -9.7648059399   -1.9121073052    8.3375143804   -1.6591784162
  7         -9.7649491656   -1.9096235853    8.3402391467   -1.6601266483
  8         -9.7650760152   -1.9081414474    8.3418656143   -1.6607074121
  9         -9.7651706985   -1.9072604854    8.3428326937   -1.6610617503
 10         -9.7652382514   -1.9067372803    8.3434072476   -1.6612776996
 11         -9.7652857165   -1.9064264393    8.3437487186   -1.6614093230
 12         -9.7653187878   -1.9062416398    8.3439518026   -1.6614896017
 13         -9.7653416603   -1.9061316977    8.3440726682   -1.6615386084
 14         -9.7653573623   -1.9060662508    8.3441446457   -1.6615685550
 15         -9.7653680636   -1.9060272717    8.3441875315   -1.6615868736
 16         -9.7653753069   -1.9060040469    8.3442130947   -1.6615980912
 17         -9.7653801789   -1.9059902041    8.3442283379   -1.6616049679
 18         -9.7653834376   -1.9059819507    8.3442374303   -1.6616091880
 19         -9.7653856064   -1.9059770284    8.3442428555   -1.6616117806
 20         -9.7653870434   -1.9059740920    8.3442460935   -1.6616133752
 21         -9.7653879920   -1.9059723397    8.3442480267   -1.6616143570
 22         -9.7653886159   -1.9059712938    8.3442491812   -1.6616149621
 23         -9.7653890251   -1.9059706693    8.3442498709   -1.6616153355
 24         -9.7653892927   -1.9059702962    8.3442502831   -1.6616155662
 25         -9.7653894674   -1.9059700734    8.3442505295   -1.6616157088
 26         -9.7653895811   -1.9059699402    8.3442506769   -1.6616157972
 27         -9.7653896550   -1.9059698605    8.3442507650   -1.6616158519
Atom SCF converged after  27 iterations to a total energy of     -9.76538966

Atom SCF Calculation for O  : Z (AE atom) =   8 : Z (PS atom) =   6
Config String:
Orbitals (num,occ):  2     2.00 4.00
Orbitals   (num,l):  2        0    1
Real-space Grid (nr,dr,rmax): 1223    0.0065466448    8.0000000000
Spherical Bessel Basis (nsws,lmax,cutoff):   48    1  182.3119948938
Confining potential (l,width,scale):  0    3.0000000000  100.0000000000
Confining potential (l,width,scale):  1    3.0000000000  100.0000000000
  1         -1.5660355271   -6.8154879378   10.1554306392   -1.9817841191
  2        -16.4385697371   -2.3896453043   13.5944532894   -2.6260742405
  3        -14.9493756031   -2.7563365996   13.2023051851   -2.5596124416
  4        -15.3921156116   -2.6131635629   13.3532696858   -2.5891318304
  5        -15.2222620343   -2.6552718809   13.3087861887   -2.5818428772
  6        -15.2271219795   -2.6512490305   13.3131301120   -2.5830481560
  7        -15.2216556511   -2.6517566327   13.3126322695   -2.5831384415
  8        -15.2189409231   -2.6519165698   13.3124873659   -2.5832258273
  9        -15.2176830401   -2.6519870245   13.3124248803   -2.5832715807
 10        -15.2168274876   -2.6520379051   13.3123794352   -2.5833033936
 11        -15.2162432841   -2.6520751044   13.3123459086   -2.5833253977
 12        -15.2158436233   -2.6521023370   13.3123211479   -2.5833405877
 13        -15.2155699453   -2.6521222216   13.3123029240   -2.5833510681
 14        -15.2153824277   -2.6521366873   13.3122895736   -2.5833582998
 15        -15.2152538907   -2.6521471711   13.3122798388   -2.5833632917
 16        -15.2151657518   -2.6521547421   13.3122727707   -2.5833667391
 17        -15.2151052947   -2.6521601922   13.3122676585   -2.5833691212
 18        -15.2150638124   -2.6521641043   13.3122639735   -2.5833707681
 19        -15.2150353409   -2.6521669051   13.3122613253   -2.5833719074
 20        -15.2150157937   -2.6521689058   13.3122594273   -2.5833726959
 21        -15.2150023695   -2.6521703318   13.3122580703   -2.5833732419
 22        -15.2149931477   -2.6521713464   13.3122571023   -2.5833736203
 23        -15.2149868109   -2.6521720670   13.3122564130   -2.5833738826
 24        -15.2149824553   -2.6521725780   13.3122559231   -2.5833740645
 25        -15.2149794607   -2.6521729398   13.3122555755   -2.5833741908
 26        -15.2149774013   -2.6521731957   13.3122553293   -2.5833742785
 27        -15.2149759847   -2.6521733764   13.3122551550   -2.5833743394
 28        -15.2149750099   -2.6521735039   13.3122550319   -2.5833743817
 29        -15.2149743390   -2.6521735937   13.3122549450   -2.5833744111
 30        -15.2149738771   -2.6521736570   13.3122548838   -2.5833744316
 31        -15.2149735591   -2.6521737015   13.3122548406   -2.5833744458
 32        -15.2149733401   -2.6521737328   13.3122548103   -2.5833744558
 33        -15.2149731892   -2.6521737547   13.3122547889   -2.5833744627
 34        -15.2149730852   -2.6521737701   13.3122547740   -2.5833744675
 35        -15.2149730135   -2.6521737809   13.3122547634   -2.5833744708
Atom SCF converged after  35 iterations to a total energy of    -15.21497301

BC: +++++++++++++++ Summary of boundary conditions ++++++++++++++
BC: |       Component       |     Keyword     |   Periodicity   |
BC: |                       |                 |     X  Y  Z [1] |
BC: |-----------------------------------------------------------|
BC: | Ion-ion               | ion_ion_bc [2]  |     P  P  P     |
BC: | Local pseudopotential | pspot_bc [3]    |     P  P  P     |
BC: | Hartree-Fock exchange | hfx_bc          |     P  P  P     |
BC: | Van der Waals         | vdw_bc          |     P  P  P     |
BC: +++++++++++++++++++++++++++++++++++++++++++++++++++++++++++++
BC: P: Periodic, O: Open.
BC: [1] Not strictly along X, Y, Z but rather along lattice vectors A1, A2, A3.
BC: [2] Also affected by: pbc_correction_cutoff, cutoff_coulomb_type,
BC:     is_smeared_ion_rep, is_implicit_solvent, openbc_ion_ion.
BC: [3] Also affected by: is_smeared_ion_rep, is_implicit_solvent, openbc_pspot.

WARNING: The number of FFT boxes in a batch is not a multiple of the number of
OpenMP threads. Consider changing fftbox_batch_size.

Determining parallel strategy ...
... using space-filling curve
... NGWF load balancing: max     13;  min     10;  average     11
... Projector load balancing: max      7;  min      2;  average      2
... done
Calculating Ewald energy ...
              Ewald: real-space energy =         5215.837979
        Ewald: reciprocal-space energy =         4029.659275
         Ewald: (sum_charge)**2 energy =          637.450247
         Ewald: (sum_charge**2) energy =          109.455367
                          Ewald energy =         8498.591640
======================= Empirical dispersion information =======================
Model : Elstner
WARNING: No optimised dispersion parameters available for B3LYP
Dispersion Correction Energy: -0.20353922E+00 Hartree
================================================================================
Basis initialisation ...... NGWF spheres initialised
... Projector spheres initialised
... NGWF tight boxes initialised
... Tight-boxes gathered
... NGWF basis size (local,global):         84037      5394854
... Nonlocal pseudopotential projector initialisation
... done

Initialising remote NGWF capability... done. 

SWRI: Initialising module (stage 1)... 
SWRI: [for_hfx] Initialising (stage 1)...
SWRI: [for_hfx] - Using user-selected metric matrix evaluation scheme (2D numerical-1D analytic).
SWRI: [for_hfx] - Initialising Bessels (l_max=3)... done.
SWRI: [for_hfx] - Initialising radial lookup... done.
SWRI: [for_hfx] - SW batch size (tile width) set to 192.
SWRI: [for_hfx] - Initialising persistent cache structures... done.
SWRI: [for_hfx] - Initialising metric matrix... done.
SWRI: [for_hfx] Done.
SWRI: Stage 1 completed.

========================== Sparse matrix information ===========================
                        Overlap matrix filling:  36.14%
                        Density kernel filling: 100.00%
              NGWF-Proj overlap matrix filling:  11.66%
                    Hamiltonian matrix filling: 100.00%
                  NGWF diagonal matrix filling:   0.46%
                             KS matrix filling: 100.00% 
                           KSKS matrix filling: 100.00% 
================================================================================

Sparse matrix initialisation ... done
HFx: Creating X matrix structure for val rep (spin 1).
Initializing spherical harmonic rotation module.

SWRI: Initializing module (stage 2)... 
SWRI: [for_hfx] Initialising (stage 2)... 
SWRI: [for_hfx] - NL: Populating neighbour list: SWRI_S_ATOMS... done.
SWRI: [for_hfx] - Generating and communicating atomblock list.
SWRI: [for_hfx]   0 atomblocks read from disk.
SWRI: [for_hfx]   16586 atomblocks to process.
SWRI: [for_hfx]   Sorting atomblocks according to proximitiy to (    0.000000,    0.000000,    0.000000).
SWRI: [for_hfx] - Calculating on-site elements of the metric matrix V... done.
SWRI: [for_hfx] - Calculating off-site elements of the metric matrix V.
 +----------------------------------------------------+
 |  Spherical wave res. of identity Chebyshev engine  |
 |  Estimated memory requirement per MPI rank         |
 +----------------------------------------------------+
 |  workspace atomblock                 :  288.00 kB  |
 |  vtile                               :  288.00 kB  |
 |  recvtile                            :  288.00 kB  |
 |  workers_done                        :  256.00  B  |
 |  atomblocklist                       :  323.95 kB  |
 |  tilelist (root only)                :  194.37 kB  |
 |  tile hash table (upper bound)       :   18.00 MB  |
 |  nodes_template                      :  162.00 kB  |
 |  swop_values                         :    3.16 MB  |
 |  swy_values                          :    3.16 MB  |
 |  swhome_all_coeffs                   :   30.38 MB  |
 |  swpot_batch_coeffs                  :   30.38 MB  |
 |  all_atomblocks (indices)            :  568.55 kB  |
 |  my_atomblocks (indices)             :  568.55 kB  |
 |  num_q_per_l                         :   80.00  B  |
 |  atomblock rotation matrix           :  288.00 kB  |
 +----------------------------------------------------+
 |  Estimated peak total per MPI rank   :   87.98 MB  |
 +----------------------------------------------------+
SWRI: [for_hfx]   16586 tiles to process (16586 atomblocks x 1 batches)
SWRI: [for_hfx]   Tiles completed:        0, left:    16522, in progress:    64.
SWRI: [for_hfx]   Tiles completed:       37, left:    16485, in progress:    64.
SWRI: [for_hfx]   Tiles completed:       93, left:    16429, in progress:    64.
SWRI: [for_hfx]   Tiles completed:      146, left:    16376, in progress:    64.
SWRI: [for_hfx]   Tiles completed:      197, left:    16325, in progress:    64.
SWRI: [for_hfx]   Tiles completed:      255, left:    16267, in progress:    64.
SWRI: [for_hfx]   Tiles completed:      311, left:    16211, in progress:    64.
SWRI: [for_hfx]   Tiles completed:      372, left:    16150, in progress:    64.
SWRI: [for_hfx]   Tiles completed:      432, left:    16090, in progress:    64.
SWRI: [for_hfx]   Tiles completed:      480, left:    16042, in progress:    64.
SWRI: [for_hfx]   Tiles completed:      530, left:    15992, in progress:    64.
SWRI: [for_hfx]   Tiles completed:      588, left:    15934, in progress:    64.
SWRI: [for_hfx]   Tiles completed:      648, left:    15874, in progress:    64.
SWRI: [for_hfx]   Tiles completed:      707, left:    15815, in progress:    64.
SWRI: [for_hfx]   Tiles completed:      766, left:    15756, in progress:    64.
SWRI: [for_hfx]   Tiles completed:      825, left:    15697, in progress:    64.
SWRI: [for_hfx]   Tiles completed:      884, left:    15638, in progress:    64.
SWRI: [for_hfx]   Tiles completed:      939, left:    15583, in progress:    64.
SWRI: [for_hfx]   Tiles completed:      997, left:    15525, in progress:    64.
SWRI: [for_hfx]   Tiles completed:     1058, left:    15464, in progress:    64.
SWRI: [for_hfx]   Tiles completed:     1114, left:    15408, in progress:    64.
SWRI: [for_hfx]   Tiles completed:     1173, left:    15349, in progress:    64.
SWRI: [for_hfx]   Tiles completed:     1225, left:    15297, in progress:    64.
SWRI: [for_hfx]   Tiles completed:     1282, left:    15240, in progress:    64.
SWRI: [for_hfx]   Tiles completed:     1339, left:    15183, in progress:    64.
SWRI: [for_hfx]   Tiles completed:     1396, left:    15126, in progress:    64.
SWRI: [for_hfx]   Tiles completed:     1454, left:    15068, in progress:    64.
SWRI: [for_hfx]   Tiles completed:     1516, left:    15006, in progress:    64.
SWRI: [for_hfx]   Tiles completed:     1573, left:    14949, in progress:    64.
SWRI: [for_hfx]   Tiles completed:     1633, left:    14889, in progress:    64.
SWRI: [for_hfx]   Tiles completed:     1691, left:    14831, in progress:    64.
SWRI: [for_hfx]   Tiles completed:     1750, left:    14772, in progress:    64.
SWRI: [for_hfx]   Tiles completed:     1810, left:    14712, in progress:    64.
SWRI: [for_hfx]   Tiles completed:     1867, left:    14655, in progress:    64.
SWRI: [for_hfx]   Tiles completed:     1925, left:    14597, in progress:    64.
SWRI: [for_hfx]   Tiles completed:     1982, left:    14540, in progress:    64.
SWRI: [for_hfx]   Tiles completed:     2032, left:    14490, in progress:    64.
SWRI: [for_hfx]   Tiles completed:     2091, left:    14431, in progress:    64.
SWRI: [for_hfx]   Tiles completed:     2143, left:    14379, in progress:    64.
SWRI: [for_hfx]   Tiles completed:     2203, left:    14319, in progress:    64.
SWRI: [for_hfx]   Tiles completed:     2280, left:    14242, in progress:    64.
SWRI: [for_hfx]   Tiles completed:     2340, left:    14182, in progress:    64.
SWRI: [for_hfx]   Tiles completed:     2398, left:    14124, in progress:    64.
SWRI: [for_hfx]   Tiles completed:     2457, left:    14065, in progress:    64.
SWRI: [for_hfx]   Tiles completed:     2513, left:    14009, in progress:    64.
SWRI: [for_hfx]   Tiles completed:     2569, left:    13953, in progress:    64.
SWRI: [for_hfx]   Tiles completed:     2629, left:    13893, in progress:    64.
SWRI: [for_hfx]   Tiles completed:     2684, left:    13838, in progress:    64.
SWRI: [for_hfx]   Tiles completed:     2743, left:    13779, in progress:    64.
SWRI: [for_hfx]   Tiles completed:     2800, left:    13722, in progress:    64.
SWRI: [for_hfx]   Tiles completed:     2859, left:    13663, in progress:    64.
SWRI: [for_hfx]   Tiles completed:     2919, left:    13603, in progress:    64.
SWRI: [for_hfx]   Tiles completed:     2985, left:    13537, in progress:    64.
SWRI: [for_hfx]   Tiles completed:     3031, left:    13491, in progress:    64.
SWRI: [for_hfx]   Tiles completed:     3093, left:    13429, in progress:    64.
SWRI: [for_hfx]   Tiles completed:     3177, left:    13345, in progress:    64.
SWRI: [for_hfx]   Tiles completed:     3242, left:    13280, in progress:    64.
SWRI: [for_hfx]   Tiles completed:     3277, left:    13245, in progress:    64.
SWRI: [for_hfx]   Tiles completed:     3336, left:    13186, in progress:    64.
SWRI: [for_hfx]   Tiles completed:     3395, left:    13127, in progress:    64.
SWRI: [for_hfx]   Tiles completed:     3456, left:    13066, in progress:    64.
SWRI: [for_hfx]   Tiles completed:     3516, left:    13006, in progress:    64.
SWRI: [for_hfx]   Tiles completed:     3573, left:    12949, in progress:    64.
SWRI: [for_hfx]   Tiles completed:     3636, left:    12886, in progress:    64.
SWRI: [for_hfx]   Tiles completed:     3694, left:    12828, in progress:    64.
SWRI: [for_hfx]   Tiles completed:     3746, left:    12776, in progress:    64.
SWRI: [for_hfx]   Tiles completed:     3800, left:    12722, in progress:    64.
SWRI: [for_hfx]   Tiles completed:     3859, left:    12663, in progress:    64.
SWRI: [for_hfx]   Tiles completed:     3925, left:    12597, in progress:    64.
SWRI: [for_hfx]   Tiles completed:     3988, left:    12534, in progress:    64.
SWRI: [for_hfx]   Tiles completed:     4049, left:    12473, in progress:    64.
SWRI: [for_hfx]   Tiles completed:     4109, left:    12413, in progress:    64.
SWRI: [for_hfx]   Tiles completed:     4167, left:    12355, in progress:    64.
SWRI: [for_hfx]   Tiles completed:     4222, left:    12300, in progress:    64.
SWRI: [for_hfx]   Tiles completed:     4277, left:    12245, in progress:    64.
SWRI: [for_hfx]   Tiles completed:     4332, left:    12190, in progress:    64.
SWRI: [for_hfx]   Tiles completed:     4389, left:    12133, in progress:    64.
SWRI: [for_hfx]   Tiles completed:     4451, left:    12071, in progress:    64.
SWRI: [for_hfx]   Tiles completed:     4506, left:    12016, in progress:    64.
SWRI: [for_hfx]   Tiles completed:     4565, left:    11957, in progress:    64.
SWRI: [for_hfx]   Tiles completed:     4626, left:    11896, in progress:    64.
SWRI: [for_hfx]   Tiles completed:     4685, left:    11837, in progress:    64.
SWRI: [for_hfx]   Tiles completed:     4744, left:    11778, in progress:    64.
SWRI: [for_hfx]   Tiles completed:     4798, left:    11724, in progress:    64.
SWRI: [for_hfx]   Tiles completed:     4852, left:    11670, in progress:    64.
SWRI: [for_hfx]   Tiles completed:     4910, left:    11612, in progress:    64.
SWRI: [for_hfx]   Tiles completed:     4965, left:    11557, in progress:    64.
SWRI: [for_hfx]   Tiles completed:     5020, left:    11502, in progress:    64.
SWRI: [for_hfx]   Tiles completed:     5087, left:    11435, in progress:    64.
SWRI: [for_hfx]   Tiles completed:     5146, left:    11376, in progress:    64.
SWRI: [for_hfx]   Tiles completed:     5208, left:    11314, in progress:    64.
SWRI: [for_hfx]   Tiles completed:     5267, left:    11255, in progress:    64.
SWRI: [for_hfx]   Tiles completed:     5323, left:    11199, in progress:    64.
SWRI: [for_hfx]   Tiles completed:     5380, left:    11142, in progress:    64.
SWRI: [for_hfx]   Tiles completed:     5438, left:    11084, in progress:    64.
SWRI: [for_hfx]   Tiles completed:     5491, left:    11031, in progress:    64.
SWRI: [for_hfx]   Tiles completed:     5549, left:    10973, in progress:    64.
SWRI: [for_hfx]   Tiles completed:     5605, left:    10917, in progress:    64.
SWRI: [for_hfx]   Tiles completed:     5663, left:    10859, in progress:    64.
SWRI: [for_hfx]   Tiles completed:     5721, left:    10801, in progress:    64.
SWRI: [for_hfx]   Tiles completed:     5776, left:    10746, in progress:    64.
SWRI: [for_hfx]   Tiles completed:     5833, left:    10689, in progress:    64.
SWRI: [for_hfx]   Tiles completed:     5893, left:    10629, in progress:    64.
SWRI: [for_hfx]   Tiles completed:     5955, left:    10567, in progress:    64.
SWRI: [for_hfx]   Tiles completed:     6013, left:    10509, in progress:    64.
SWRI: [for_hfx]   Tiles completed:     6073, left:    10449, in progress:    64.
SWRI: [for_hfx]   Tiles completed:     6132, left:    10390, in progress:    64.
SWRI: [for_hfx]   Tiles completed:     6192, left:    10330, in progress:    64.
SWRI: [for_hfx]   Tiles completed:     6241, left:    10281, in progress:    64.
SWRI: [for_hfx]   Tiles completed:     6296, left:    10226, in progress:    64.
SWRI: [for_hfx]   Tiles completed:     6354, left:    10168, in progress:    64.
SWRI: [for_hfx]   Tiles completed:     6413, left:    10109, in progress:    64.
SWRI: [for_hfx]   Tiles completed:     6471, left:    10051, in progress:    64.
SWRI: [for_hfx]   Tiles completed:     6526, left:     9996, in progress:    64.
SWRI: [for_hfx]   Tiles completed:     6582, left:     9940, in progress:    64.
SWRI: [for_hfx]   Tiles completed:     6643, left:     9879, in progress:    64.
SWRI: [for_hfx]   Tiles completed:     6707, left:     9815, in progress:    64.
SWRI: [for_hfx]   Tiles completed:     6765, left:     9757, in progress:    64.
SWRI: [for_hfx]   Tiles completed:     6825, left:     9697, in progress:    64.
SWRI: [for_hfx]   Tiles completed:     6885, left:     9637, in progress:    64.
SWRI: [for_hfx]   Tiles completed:     6942, left:     9580, in progress:    64.
SWRI: [for_hfx]   Tiles completed:     6998, left:     9524, in progress:    64.
SWRI: [for_hfx]   Tiles completed:     7059, left:     9463, in progress:    64.
SWRI: [for_hfx]   Tiles completed:     7116, left:     9406, in progress:    64.
SWRI: [for_hfx]   Tiles completed:     7176, left:     9346, in progress:    64.
SWRI: [for_hfx]   Tiles completed:     7234, left:     9288, in progress:    64.
SWRI: [for_hfx]   Tiles completed:     7301, left:     9221, in progress:    64.
SWRI: [for_hfx]   Tiles completed:     7359, left:     9163, in progress:    64.
SWRI: [for_hfx]   Tiles completed:     7419, left:     9103, in progress:    64.
SWRI: [for_hfx]   Tiles completed:     7479, left:     9043, in progress:    64.
SWRI: [for_hfx]   Tiles completed:     7537, left:     8985, in progress:    64.
SWRI: [for_hfx]   Tiles completed:     7595, left:     8927, in progress:    64.
SWRI: [for_hfx]   Tiles completed:     7651, left:     8871, in progress:    64.
SWRI: [for_hfx]   Tiles completed:     7709, left:     8813, in progress:    64.
SWRI: [for_hfx]   Tiles completed:     7766, left:     8756, in progress:    64.
SWRI: [for_hfx]   Tiles completed:     7825, left:     8697, in progress:    64.
SWRI: [for_hfx]   Tiles completed:     7885, left:     8637, in progress:    64.
SWRI: [for_hfx]   Tiles completed:     7944, left:     8578, in progress:    64.
SWRI: [for_hfx]   Tiles completed:     7998, left:     8524, in progress:    64.
SWRI: [for_hfx]   Tiles completed:     8055, left:     8467, in progress:    64.
SWRI: [for_hfx]   Tiles completed:     8116, left:     8406, in progress:    64.
SWRI: [for_hfx]   Tiles completed:     8175, left:     8347, in progress:    64.
SWRI: [for_hfx]   Tiles completed:     8233, left:     8289, in progress:    64.
SWRI: [for_hfx]   Tiles completed:     8288, left:     8234, in progress:    64.
SWRI: [for_hfx]   Tiles completed:     8362, left:     8160, in progress:    64.
SWRI: [for_hfx]   Tiles completed:     8406, left:     8116, in progress:    64.
SWRI: [for_hfx]   Tiles completed:     8480, left:     8042, in progress:    64.
SWRI: [for_hfx]   Tiles completed:     8537, left:     7985, in progress:    64.
SWRI: [for_hfx]   Tiles completed:     8595, left:     7927, in progress:    64.
SWRI: [for_hfx]   Tiles completed:     8655, left:     7867, in progress:    64.
SWRI: [for_hfx]   Tiles completed:     8710, left:     7812, in progress:    64.
SWRI: [for_hfx]   Tiles completed:     8765, left:     7757, in progress:    64.
SWRI: [for_hfx]   Tiles completed:     8822, left:     7700, in progress:    64.
SWRI: [for_hfx]   Tiles completed:     8881, left:     7641, in progress:    64.
SWRI: [for_hfx]   Tiles completed:     8940, left:     7582, in progress:    64.
SWRI: [for_hfx]   Tiles completed:     9000, left:     7522, in progress:    64.
SWRI: [for_hfx]   Tiles completed:     9057, left:     7465, in progress:    64.
SWRI: [for_hfx]   Tiles completed:     9116, left:     7406, in progress:    64.
SWRI: [for_hfx]   Tiles completed:     9175, left:     7347, in progress:    64.
SWRI: [for_hfx]   Tiles completed:     9231, left:     7291, in progress:    64.
SWRI: [for_hfx]   Tiles completed:     9286, left:     7236, in progress:    64.
SWRI: [for_hfx]   Tiles completed:     9345, left:     7177, in progress:    64.
SWRI: [for_hfx]   Tiles completed:     9403, left:     7119, in progress:    64.
SWRI: [for_hfx]   Tiles completed:     9463, left:     7059, in progress:    64.
SWRI: [for_hfx]   Tiles completed:     9523, left:     6999, in progress:    64.
SWRI: [for_hfx]   Tiles completed:     9584, left:     6938, in progress:    64.
SWRI: [for_hfx]   Tiles completed:     9638, left:     6884, in progress:    64.
SWRI: [for_hfx]   Tiles completed:     9698, left:     6824, in progress:    64.
SWRI: [for_hfx]   Tiles completed:     9763, left:     6759, in progress:    64.
SWRI: [for_hfx]   Tiles completed:     9817, left:     6705, in progress:    64.
SWRI: [for_hfx]   Tiles completed:     9878, left:     6644, in progress:    64.
SWRI: [for_hfx]   Tiles completed:     9938, left:     6584, in progress:    64.
SWRI: [for_hfx]   Tiles completed:    10002, left:     6520, in progress:    64.
SWRI: [for_hfx]   Tiles completed:    10061, left:     6461, in progress:    64.
SWRI: [for_hfx]   Tiles completed:    10121, left:     6401, in progress:    64.
SWRI: [for_hfx]   Tiles completed:    10183, left:     6339, in progress:    64.
SWRI: [for_hfx]   Tiles completed:    10249, left:     6273, in progress:    64.
SWRI: [for_hfx]   Tiles completed:    10306, left:     6216, in progress:    64.
SWRI: [for_hfx]   Tiles completed:    10365, left:     6157, in progress:    64.
SWRI: [for_hfx]   Tiles completed:    10430, left:     6092, in progress:    64.
SWRI: [for_hfx]   Tiles completed:    10496, left:     6026, in progress:    64.
SWRI: [for_hfx]   Tiles completed:    10559, left:     5963, in progress:    64.
SWRI: [for_hfx]   Tiles completed:    10621, left:     5901, in progress:    64.
SWRI: [for_hfx]   Tiles completed:    10681, left:     5841, in progress:    64.
SWRI: [for_hfx]   Tiles completed:    10737, left:     5785, in progress:    64.
SWRI: [for_hfx]   Tiles completed:    10801, left:     5721, in progress:    64.
SWRI: [for_hfx]   Tiles completed:    10862, left:     5660, in progress:    64.
SWRI: [for_hfx]   Tiles completed:    10925, left:     5597, in progress:    64.
SWRI: [for_hfx]   Tiles completed:    10987, left:     5535, in progress:    64.
SWRI: [for_hfx]   Tiles completed:    11044, left:     5478, in progress:    64.
SWRI: [for_hfx]   Tiles completed:    11104, left:     5418, in progress:    64.
SWRI: [for_hfx]   Tiles completed:    11155, left:     5367, in progress:    64.
SWRI: [for_hfx]   Tiles completed:    11211, left:     5311, in progress:    64.
SWRI: [for_hfx]   Tiles completed:    11268, left:     5254, in progress:    64.
SWRI: [for_hfx]   Tiles completed:    11325, left:     5197, in progress:    64.
SWRI: [for_hfx]   Tiles completed:    11381, left:     5141, in progress:    64.
SWRI: [for_hfx]   Tiles completed:    11440, left:     5082, in progress:    64.
SWRI: [for_hfx]   Tiles completed:    11503, left:     5019, in progress:    64.
SWRI: [for_hfx]   Tiles completed:    11570, left:     4952, in progress:    64.
SWRI: [for_hfx]   Tiles completed:    11630, left:     4892, in progress:    64.
SWRI: [for_hfx]   Tiles completed:    11697, left:     4825, in progress:    64.
SWRI: [for_hfx]   Tiles completed:    11772, left:     4750, in progress:    64.
SWRI: [for_hfx]   Tiles completed:    11834, left:     4688, in progress:    64.
SWRI: [for_hfx]   Tiles completed:    11894, left:     4628, in progress:    64.
SWRI: [for_hfx]   Tiles completed:    11966, left:     4556, in progress:    64.
SWRI: [for_hfx]   Tiles completed:    12024, left:     4498, in progress:    64.
SWRI: [for_hfx]   Tiles completed:    12077, left:     4445, in progress:    64.
SWRI: [for_hfx]   Tiles completed:    12139, left:     4383, in progress:    64.
SWRI: [for_hfx]   Tiles completed:    12219, left:     4303, in progress:    64.
SWRI: [for_hfx]   Tiles completed:    12283, left:     4239, in progress:    64.
SWRI: [for_hfx]   Tiles completed:    12344, left:     4178, in progress:    64.
SWRI: [for_hfx]   Tiles completed:    12406, left:     4116, in progress:    64.
SWRI: [for_hfx]   Tiles completed:    12462, left:     4060, in progress:    64.
SWRI: [for_hfx]   Tiles completed:    12517, left:     4005, in progress:    64.
SWRI: [for_hfx]   Tiles completed:    12577, left:     3945, in progress:    64.
SWRI: [for_hfx]   Tiles completed:    12643, left:     3879, in progress:    64.
SWRI: [for_hfx]   Tiles completed:    12705, left:     3817, in progress:    64.
SWRI: [for_hfx]   Tiles completed:    12775, left:     3747, in progress:    64.
SWRI: [for_hfx]   Tiles completed:    12838, left:     3684, in progress:    64.
SWRI: [for_hfx]   Tiles completed:    12898, left:     3624, in progress:    64.
SWRI: [for_hfx]   Tiles completed:    12959, left:     3563, in progress:    64.
SWRI: [for_hfx]   Tiles completed:    13023, left:     3499, in progress:    64.
SWRI: [for_hfx]   Tiles completed:    13082, left:     3440, in progress:    64.
SWRI: [for_hfx]   Tiles completed:    13143, left:     3379, in progress:    64.
SWRI: [for_hfx]   Tiles completed:    13205, left:     3317, in progress:    64.
SWRI: [for_hfx]   Tiles completed:    13266, left:     3256, in progress:    64.
SWRI: [for_hfx]   Tiles completed:    13331, left:     3191, in progress:    64.
SWRI: [for_hfx]   Tiles completed:    13397, left:     3125, in progress:    64.
SWRI: [for_hfx]   Tiles completed:    13459, left:     3063, in progress:    64.
SWRI: [for_hfx]   Tiles completed:    13523, left:     2999, in progress:    64.
SWRI: [for_hfx]   Tiles completed:    13586, left:     2936, in progress:    64.
SWRI: [for_hfx]   Tiles completed:    13644, left:     2878, in progress:    64.
SWRI: [for_hfx]   Tiles completed:    13705, left:     2817, in progress:    64.
SWRI: [for_hfx]   Tiles completed:    13768, left:     2754, in progress:    64.
SWRI: [for_hfx]   Tiles completed:    13828, left:     2694, in progress:    64.
SWRI: [for_hfx]   Tiles completed:    13891, left:     2631, in progress:    64.
SWRI: [for_hfx]   Tiles completed:    13954, left:     2568, in progress:    64.
SWRI: [for_hfx]   Tiles completed:    14017, left:     2505, in progress:    64.
SWRI: [for_hfx]   Tiles completed:    14078, left:     2444, in progress:    64.
SWRI: [for_hfx]   Tiles completed:    14142, left:     2380, in progress:    64.
SWRI: [for_hfx]   Tiles completed:    14209, left:     2313, in progress:    64.
SWRI: [for_hfx]   Tiles completed:    14274, left:     2248, in progress:    64.
SWRI: [for_hfx]   Tiles completed:    14334, left:     2188, in progress:    64.
SWRI: [for_hfx]   Tiles completed:    14391, left:     2131, in progress:    64.
SWRI: [for_hfx]   Tiles completed:    14452, left:     2070, in progress:    64.
SWRI: [for_hfx]   Tiles completed:    14516, left:     2006, in progress:    64.
SWRI: [for_hfx]   Tiles completed:    14578, left:     1944, in progress:    64.
SWRI: [for_hfx]   Tiles completed:    14635, left:     1887, in progress:    64.
SWRI: [for_hfx]   Tiles completed:    14699, left:     1823, in progress:    64.
SWRI: [for_hfx]   Tiles completed:    14758, left:     1764, in progress:    64.
SWRI: [for_hfx]   Tiles completed:    14814, left:     1708, in progress:    64.
SWRI: [for_hfx]   Tiles completed:    14874, left:     1648, in progress:    64.
SWRI: [for_hfx]   Tiles completed:    14935, left:     1587, in progress:    64.
SWRI: [for_hfx]   Tiles completed:    14995, left:     1527, in progress:    64.
SWRI: [for_hfx]   Tiles completed:    15057, left:     1465, in progress:    64.
SWRI: [for_hfx]   Tiles completed:    15119, left:     1403, in progress:    64.
SWRI: [for_hfx]   Tiles completed:    15181, left:     1341, in progress:    64.
SWRI: [for_hfx]   Tiles completed:    15243, left:     1279, in progress:    64.
SWRI: [for_hfx]   Tiles completed:    15300, left:     1222, in progress:    64.
SWRI: [for_hfx]   Tiles completed:    15359, left:     1163, in progress:    64.
SWRI: [for_hfx]   Tiles completed:    15415, left:     1107, in progress:    64.
SWRI: [for_hfx]   Tiles completed:    15472, left:     1050, in progress:    64.
SWRI: [for_hfx]   Tiles completed:    15531, left:      991, in progress:    64.
SWRI: [for_hfx]   Tiles completed:    15594, left:      928, in progress:    64.
SWRI: [for_hfx]   Tiles completed:    15659, left:      863, in progress:    64.
SWRI: [for_hfx]   Tiles completed:    15723, left:      799, in progress:    64.
SWRI: [for_hfx]   Tiles completed:    15793, left:      729, in progress:    64.
SWRI: [for_hfx]   Tiles completed:    15856, left:      666, in progress:    64.
SWRI: [for_hfx]   Tiles completed:    15917, left:      605, in progress:    64.
SWRI: [for_hfx]   Tiles completed:    15983, left:      539, in progress:    64.
SWRI: [for_hfx]   Tiles completed:    16045, left:      477, in progress:    64.
SWRI: [for_hfx]   Tiles completed:    16108, left:      414, in progress:    64.
SWRI: [for_hfx]   Tiles completed:    16171, left:      351, in progress:    64.
SWRI: [for_hfx]   Tiles completed:    16230, left:      292, in progress:    64.
SWRI: [for_hfx]   Tiles completed:    16292, left:      230, in progress:    64.
SWRI: [for_hfx]   Tiles completed:    16349, left:      173, in progress:    64.
SWRI: [for_hfx]   Tiles completed:    16419, left:      103, in progress:    64.
SWRI: [for_hfx]   Tiles completed:    16481, left:       41, in progress:    64.
SWRI: [for_hfx]   Tiles completed:    16544, left:        0, in progress:    42.
SWRI: [for_hfx] - Filling the remainder by symmetry.
SWRI: Done.
SWX: Initialising module... 
done.
NL: Populating neighbour list: HFx_S_ATOMS... done.
NL: Populating neighbour list: HFx_X_ATOMS... done.
NL: Populating neighbour list: HFx_XS_ATOMS... done.
NL: Populating neighbour list: HFx_SXS_ATOMS... done.
SWX: Initialising val%[hfx_swex]->full-RI->[for_hfx].
SWX: - min_l: 0, max_l: 3, max_q: 12, num_sws: 192, max_sws: 192.
SWX: Done.
NGWF initialisation ...... done
SWX: Invalidating val%[hfx_swex].
HFx: Stage-1 for val (single NGWF basis).
HFx: - Parallel distribution... 
============================= Load distribution =============================   
|     MPI |      # BC |     # B |     # C |    #B+C |    # NGWF | estimated |
|    rank |     pairs |   atoms |   atoms |   atoms |  products |      load |
+---------------------------------------------------------------------------+
|       0 |       572 |       7 |     159 |     166 |      2882 |      2882 |
|       1 |       464 |       4 |     167 |     171 |      2879 |      2879 |
|       2 |       544 |       7 |     152 |     159 |      2881 |      2881 |
|       3 |       577 |       5 |     178 |     183 |      2878 |      2878 |
|       4 |       531 |       6 |     218 |     224 |      2883 |      2883 |
|       5 |       414 |       7 |     188 |     195 |      2889 |      2889 |
|       6 |       483 |       5 |     176 |     181 |      2868 |      2868 |
|       7 |       344 |       4 |     215 |     219 |      2882 |      2882 |
|       8 |       637 |       7 |     253 |     260 |      2878 |      2878 |
|       9 |       756 |       8 |     202 |     210 |      2883 |      2883 |
|      10 |       634 |      10 |     168 |     178 |      2878 |      2878 |
|      11 |       502 |       5 |     236 |     241 |      2881 |      2881 |
|      12 |       409 |       4 |     165 |     169 |      2890 |      2890 |
|      13 |       526 |       6 |     166 |     172 |      2878 |      2878 |
|      14 |       456 |       5 |     188 |     193 |      2874 |      2874 |
|      15 |       510 |       5 |     184 |     189 |      2877 |      2877 |
|      16 |       590 |      10 |     146 |     156 |      2879 |      2879 |
|      17 |       593 |       7 |     178 |     185 |      2882 |      2882 |
|      18 |       591 |       6 |     148 |     154 |      2889 |      2889 |
|      19 |       628 |       7 |     191 |     198 |      2875 |      2875 |
|      20 |       553 |       6 |     168 |     174 |      2881 |      2881 |
|      21 |       490 |       6 |     147 |     153 |      2881 |      2881 |
|      22 |       486 |       5 |     233 |     238 |      2880 |      2880 |
|      23 |       466 |       6 |     216 |     222 |      2872 |      2872 |
|      24 |       489 |       6 |     258 |     264 |      2889 |      2889 |
|      25 |       532 |       6 |     266 |     272 |      2875 |      2875 |
|      26 |       590 |       6 |     252 |     258 |      2882 |      2882 |
|      27 |       576 |       7 |     160 |     167 |      2877 |      2877 |
|      28 |       579 |       6 |     171 |     177 |      2877 |      2877 |
|      29 |       573 |       6 |     176 |     182 |      2883 |      2883 |
|      30 |       637 |       6 |     219 |     225 |      2884 |      2884 |
|      31 |       700 |       6 |     226 |     232 |      2875 |      2875 |
|      32 |       642 |       5 |     226 |     231 |      2883 |      2883 |
|      33 |       499 |       6 |     166 |     172 |      2875 |      2875 |
|      34 |       580 |       6 |     173 |     179 |      2890 |      2890 |
|      35 |       519 |       6 |     181 |     187 |      2871 |      2871 |
|      36 |       306 |       2 |     205 |     207 |      2892 |      2892 |
|      37 |       529 |       5 |     219 |     224 |      2881 |      2881 |
|      38 |       561 |       5 |     225 |     230 |      2868 |      2868 |
|      39 |       312 |       3 |     198 |     201 |      2880 |      2880 |
|      40 |       607 |       5 |     176 |     181 |      2893 |      2893 |
|      41 |       525 |       7 |     161 |     168 |      2880 |      2880 |
|      42 |       528 |       5 |     163 |     168 |      2871 |      2871 |
|      43 |       596 |       7 |     198 |     205 |      2888 |      2888 |
|      44 |       655 |       6 |     247 |     253 |      2869 |      2869 |
|      45 |       525 |       6 |     210 |     216 |      2880 |      2880 |
|      46 |       557 |       7 |     177 |     184 |      2879 |      2879 |
|      47 |       565 |       6 |     178 |     184 |      2884 |      2884 |
|      48 |       613 |       6 |     248 |     254 |      2884 |      2884 |
|      49 |       628 |       6 |     275 |     281 |      2872 |      2872 |
|      50 |       460 |       4 |     201 |     205 |      2881 |      2881 |
|      51 |       780 |       9 |     245 |     254 |      2877 |      2877 |
|      52 |       575 |       7 |     208 |     215 |      2882 |      2882 |
|      53 |       604 |       5 |     206 |     211 |      2878 |      2878 |
|      54 |       327 |       4 |     141 |     145 |      2880 |      2880 |
|      55 |       492 |       5 |     262 |     267 |      2880 |      2880 |
|      56 |       297 |       2 |     185 |     187 |      2880 |      2880 |
|      57 |       303 |       3 |     197 |     200 |      2880 |      2880 |
|      58 |       510 |       7 |     199 |     206 |      2880 |      2880 |
|      59 |       305 |       4 |     192 |     196 |      2888 |      2888 |
|      60 |       581 |       6 |     177 |     183 |      2885 |      2885 |
|      61 |       297 |       4 |     110 |     114 |      2868 |      2868 |
|      62 |       398 |       7 |     146 |     153 |      2894 |      2894 |
|      63 |       376 |       9 |     128 |     137 |      2809 |      2809 |
+---------------------------------------------------------------------------+
|     min |       297 |       2 |     110 |     114 |      2809 |      2809 |
|     max |       780 |      10 |     275 |     281 |      2894 |      2894 |
| average |     523.2 |     5.8 |   193.6 |   199.5 |    2879.1 |    2879.1 |
=============================================================================
HFx: - Communicating metric matrix (ket: BC)...
HFx: - Communicating NGWFs...
HFx: - Index book-keeping...
HFx: - Estimating memory use...
 +----------------------------------------------------+
 |  HFx TEFCI engine: minimum requirements            |
 |  Estimated memory requirement per MPI rank         |
 +----------------------------------------------------+
 |  Radial Bessel lookup                :   36.62 MB  |
 |  Dd NGWFs hash table                 :    7.62 MB  |
 |  All remote NGWFs hash table         :  176.25 MB  |
 |  dlists hash table                   :    6.28 MB  |
 |  coeffs hash table (estimate)        :   10.26 MB  |
 |  V metric matrix hash table          :  220.60 MB  |
 |  f auxiliary term                    :  611.12 MB  |
 |  P term in NGWF gradient             :  612.59 MB  |
 |  Q term in NGWF gradient             :  117.66 MB  |
 |  My kets in NGWF grad. (estimate)    :  353.31 MB  |
 |  Local kets in NGWF grad. (estim.)   :   29.07 MB  |
 |  K^{CD} hash table                   :   25.71 MB  |
 |  K^{AB} hash table                   :   15.41 MB  |
 |  tcK^A_B hash table                  :   15.41 MB  |
 |  tcK^B_A hash table                  :   15.41 MB  |
 +----------------------------------------------------+
 |  Estimated peak total per MPI rank   :    2.20 GB  |
 +----------------------------------------------------+
HFx: - Adjusting cache sizes according to weights: 0.6250, 0.3125, 0.0625.
 +----------------------------------------------------+
 |  HFx TEFCI engine: user-adjustable requirements    |
 |  Estimated memory requirement per MPI rank         |
 +----------------------------------------------------+
 |  SWOP hash table                     :   29.13 GB  |
 |  Expansions hash table               :   14.58 GB  |
 |  AD NGWF products hash table         :    2.92 GB  |
 +----------------------------------------------------+
 |  Estimated peak total per MPI rank   :   46.63 GB  |
 +----------------------------------------------------+
HFx: - Peak memory use capped at 49998.4 MB per MPI rank.
+------------------------------------------------------------------------------+
|    MPI |                           |              |           |              |
|   rank |       SWOP cache capacity | SWOPs needed | Cacheable |    Hit ratio |
+------------------------------------------------------------------------------+
|      0 |     29826 MiB (162863 el) |    484747 el |    33.60% |       88.47% |
|      1 |     29826 MiB (162863 el) |    575545 el |    28.30% |       78.95% |
|      2 |     29826 MiB (162863 el) |    515401 el |    31.60% |       88.30% |
|      3 |     29826 MiB (162863 el) |    646869 el |    25.18% |       82.00% |
|      4 |     29826 MiB (162863 el) |    816373 el |    19.95% |       80.56% |
|      5 |     29826 MiB (162863 el) |    616931 el |    26.40% |       80.83% |
|      6 |     29826 MiB (162863 el) |    646131 el |    25.21% |       78.08% |
|      7 |     29826 MiB (162863 el) |    816306 el |    19.95% |       74.22% |
|      8 |     29826 MiB (162863 el) |    986070 el |    16.52% |       69.90% |
|      9 |     29826 MiB (162863 el) |    737748 el |    22.08% |       75.69% |
|     10 |     29826 MiB (162863 el) |    490555 el |    33.20% |       84.18% |
|     11 |     29826 MiB (162863 el) |    936668 el |    17.39% |       69.37% |
|     12 |     29826 MiB (162863 el) |    573954 el |    28.38% |       79.45% |
|     13 |     29826 MiB (162863 el) |    623196 el |    26.13% |       78.22% |
|     14 |     29826 MiB (162863 el) |    726133 el |    22.43% |       75.52% |
|     15 |     29826 MiB (162863 el) |    647504 el |    25.15% |       77.99% |
|     16 |     29826 MiB (162863 el) |    433197 el |    37.60% |       88.10% |
|     17 |     29826 MiB (162863 el) |    602582 el |    27.03% |       84.38% |
|     18 |     29826 MiB (162863 el) |    506433 el |    32.16% |       86.78% |
|     19 |     29826 MiB (162863 el) |    726698 el |    22.41% |       79.47% |
|     20 |     29826 MiB (162863 el) |    574318 el |    28.36% |       84.95% |
|     21 |     29826 MiB (162863 el) |    564292 el |    28.86% |       81.15% |
|     22 |     29826 MiB (162863 el) |    903667 el |    18.02% |       72.03% |
|     23 |     29826 MiB (162863 el) |    750665 el |    21.70% |       74.85% |
|     24 |     29826 MiB (162863 el) |    901327 el |    18.07% |       71.79% |
|     25 |     29826 MiB (162863 el) |    786051 el |    20.72% |       73.95% |
|     26 |     29826 MiB (162863 el) |    799970 el |    20.36% |       75.63% |
|     27 |     29826 MiB (162863 el) |    477240 el |    34.13% |       85.00% |
|     28 |     29826 MiB (162863 el) |    547272 el |    29.76% |       84.46% |
|     29 |     29826 MiB (162863 el) |    562145 el |    28.97% |       85.33% |
|     30 |     29826 MiB (162863 el) |    829145 el |    19.64% |       81.43% |
|     31 |     29826 MiB (162863 el) |    908985 el |    17.92% |       78.77% |
|     32 |     29826 MiB (162863 el) |    854429 el |    19.06% |       78.79% |
|     33 |     29826 MiB (162863 el) |    563260 el |    28.91% |       80.25% |
|     34 |     29826 MiB (162863 el) |    558716 el |    29.15% |       81.29% |
|     35 |     29826 MiB (162863 el) |    608249 el |    26.78% |       77.66% |
|     36 |     29826 MiB (162863 el) |    771990 el |    21.10% |       74.27% |
|     37 |     29826 MiB (162863 el) |    875743 el |    18.60% |       71.29% |
|     38 |     29826 MiB (162863 el) |    909954 el |    17.90% |       70.80% |
|     39 |     29826 MiB (162863 el) |    713196 el |    22.84% |       75.27% |
|     40 |     29826 MiB (162863 el) |    623417 el |    26.12% |       76.55% |
|     41 |     29826 MiB (162863 el) |    481948 el |    33.79% |       84.08% |
|     42 |     29826 MiB (162863 el) |    525879 el |    30.97% |       84.00% |
|     43 |     29826 MiB (162863 el) |    696870 el |    23.37% |       81.67% |
|     44 |     29826 MiB (162863 el) |    959776 el |    16.97% |       74.80% |
|     45 |     29826 MiB (162863 el) |    704512 el |    23.12% |       79.51% |
|     46 |     29826 MiB (162863 el) |    575631 el |    28.29% |       84.91% |
|     47 |     29826 MiB (162863 el) |    636643 el |    25.58% |       79.67% |
|     48 |     29826 MiB (162863 el) |    908772 el |    17.92% |       73.41% |
|     49 |     29826 MiB (162863 el) |   1049856 el |    15.51% |       73.28% |
|     50 |     29826 MiB (162863 el) |    827011 el |    19.69% |       77.92% |
|     51 |     29826 MiB (162863 el) |    926980 el |    17.57% |       72.64% |
|     52 |     29826 MiB (162863 el) |    676392 el |    24.08% |       80.73% |
|     53 |     29826 MiB (162863 el) |    837310 el |    19.45% |       78.07% |
|     54 |     29826 MiB (162863 el) |    468822 el |    34.74% |       84.68% |
|     55 |     29826 MiB (162863 el) |    914048 el |    17.82% |       69.11% |
|     56 |     29826 MiB (162863 el) |    675727 el |    24.10% |       75.26% |
|     57 |     29826 MiB (162863 el) |    809763 el |    20.11% |       72.30% |
|     58 |     29826 MiB (162863 el) |    733108 el |    22.22% |       76.88% |
|     59 |     29826 MiB (162863 el) |    682593 el |    23.86% |       76.24% |
|     60 |     29826 MiB (162863 el) |    688906 el |    23.64% |       76.07% |
|     61 |     29826 MiB (162863 el) |    373746 el |    43.58% |       87.08% |
|     62 |     29826 MiB (162863 el) |    495455 el |    32.87% |       82.02% |
|     63 |     29826 MiB (162863 el) |    393190 el |    41.42% |       86.88% |
+------------------------------------------------------------------------------+
HFx: - Populating SWOP cache...
HFx: - Calculating NGWF products...
+------------------------------------------------------------------------------+
|    MPI |                          AD NGWF product cache                      |
|   rank | products stored | products left out |           total | store ratio |
+------------------------------------------------------------------------------+
|      0 |            9719 |             16296 |           26015 |      37.36% |
|      1 |            9553 |             18256 |           27809 |      34.35% |
|      2 |            9720 |             19048 |           28768 |      33.79% |
|      3 |            9422 |             19480 |           28902 |      32.60% |
|      4 |            9472 |             21891 |           31363 |      30.20% |
|      5 |            9572 |             20255 |           29827 |      32.09% |
|      6 |            9572 |             18519 |           28091 |      34.07% |
|      7 |            9539 |             22980 |           32519 |      29.33% |
|      8 |            9612 |             23530 |           33142 |      29.00% |
|      9 |            9612 |             18421 |           28033 |      34.29% |
|     10 |            9516 |             15509 |           25025 |      38.03% |
|     11 |            9612 |             22793 |           32405 |      29.66% |
|     12 |            9735 |             16199 |           25934 |      37.54% |
|     13 |            9612 |             18188 |           27800 |      34.58% |
|     14 |            9612 |             18544 |           28156 |      34.14% |
|     15 |            9523 |             16607 |           26130 |      36.44% |
|     16 |            9657 |             13365 |           23022 |      41.95% |
|     17 |            9582 |             14719 |           24301 |      39.43% |
|     18 |            9639 |             12918 |           22557 |      42.73% |
|     19 |            9588 |             17655 |           27243 |      35.19% |
|     20 |           10081 |             13019 |           23100 |      43.64% |
|     21 |            9612 |             21162 |           30774 |      31.23% |
|     22 |            9593 |             23454 |           33047 |      29.03% |
|     23 |            9546 |             23754 |           33300 |      28.67% |
|     24 |            9612 |             23504 |           33116 |      29.03% |
|     25 |            9612 |             23427 |           33039 |      29.09% |
|     26 |            9608 |             23080 |           32688 |      29.39% |
|     27 |            9608 |             23789 |           33397 |      28.77% |
|     28 |            9680 |             15908 |           25588 |      37.83% |
|     29 |            8755 |             17889 |           26644 |      32.86% |
|     30 |            9657 |             21238 |           30895 |      31.26% |
|     31 |            9775 |             22060 |           31835 |      30.71% |
|     32 |            9619 |             20827 |           30446 |      31.59% |
|     33 |            9281 |             19524 |           28805 |      32.22% |
|     34 |            9281 |             19704 |           28985 |      32.02% |
|     35 |            9404 |             18651 |           28055 |      33.52% |
|     36 |            9817 |             20589 |           30406 |      32.29% |
|     37 |            9539 |             22535 |           32074 |      29.74% |
|     38 |            9652 |             22880 |           32532 |      29.67% |
|     39 |            9604 |             18625 |           28229 |      34.02% |
|     40 |            9727 |             17558 |           27285 |      35.65% |
|     41 |            9630 |             16958 |           26588 |      36.22% |
|     42 |            9477 |             16310 |           25787 |      36.75% |
|     43 |            9550 |             18803 |           28353 |      33.68% |
|     44 |            9818 |             22542 |           32360 |      30.34% |
|     45 |            9522 |             20173 |           29695 |      32.07% |
|     46 |           10566 |             15689 |           26255 |      40.24% |
|     47 |            9842 |             18317 |           28159 |      34.95% |
|     48 |            9396 |             22897 |           32293 |      29.10% |
|     49 |            9761 |             23312 |           33073 |      29.51% |
|     50 |            9528 |             22315 |           31843 |      29.92% |
|     51 |            9348 |             22992 |           32340 |      28.91% |
|     52 |            9651 |             20857 |           30508 |      31.63% |
|     53 |            9908 |             21529 |           31437 |      31.52% |
|     54 |           10083 |             19343 |           29426 |      34.27% |
|     55 |            9588 |             23753 |           33341 |      28.76% |
|     56 |            9649 |             19931 |           29580 |      32.62% |
|     57 |            9761 |             21908 |           31669 |      30.82% |
|     58 |            9567 |             21942 |           31509 |      30.36% |
|     59 |            9771 |             20829 |           30600 |      31.93% |
|     60 |            9662 |             20517 |           30179 |      32.02% |
|     61 |           10015 |             17990 |           28005 |      35.76% |
|     62 |            9991 |             16513 |           26504 |      37.70% |
|     63 |           10397 |             13965 |           24362 |      42.68% |
+------------------------------------------------------------------------------+
HFx: ...done.
SWX: val%[hfx_swex]: Fitting my NGWF pairs (V).
============ Calculation of NGWF S^-1 using Hotelling algorithm ================ 
         Iteration  |  Frobenius norm and Maximum abs value    (of I-S*S_n^-1)   
               1       0.25962025E+02     0.98325344E+00
               2       0.25333362E+02     0.96685590E+00
               3       0.24344511E+02     0.93506178E+00
               4       0.22983237E+02     0.87519259E+00
               5       0.21326526E+02     0.76847601E+00
               6       0.19496127E+02     0.70973822E+00
               7       0.17683909E+02     0.67566464E+00
               8       0.16017035E+02     0.64356071E+00
               9       0.14177097E+02     0.59418018E+00
              10       0.11601071E+02     0.52883444E+00
              11       0.81543405E+01     0.44973255E+00
              12       0.44805811E+01     0.33141181E+00
              13       0.16832444E+01     0.18820806E+00
              14       0.35387726E+00     0.65777993E-01
              15       0.31394918E-01     0.88400203E-02
              16       0.47297926E-03     0.17066581E-03
              17       0.15166342E-06     0.64892227E-07
              18       0.46477386E-13     0.11546319E-13
================================================================================
Density renormalisation ...
Target Charge:   766.000000000000 ; Input Charge:   778.006646025188
Up spin density kernel initialisation ... 
======= Optimisation of K by Palser-Manolopoulos canonical purification ======== 
         Iteration  |  Band structure energy |    c_n   
               1        -272.42156806439863    0.5189189
               2        -291.52761339296694    0.5095894
               3        -311.79211035720442    0.5062429
               4        -329.16904734195845    0.5198320
               5        -340.09599297166767    0.5563686
[...]
|| kernel_fix                           :    16        2.03s   0.154%  ------ ||
|| fourier_apply_cell_forward           :   165        2.07s   0.157% 107.378 ||
|| hfx_main_ngwf_grad1                  :     1        2.30s   0.175%  ------ ||
|| ngwf_gradient_build_batch            :     1        2.45s   0.186%  ------ ||
|| hfx_populate_swop_cache_imbalance    :     2        2.62s   0.199%  ------ ||
|| hfx_populate_swop_cache_bookkeeping  :     1        2.63s   0.200%  ------ ||
|| xc_energy_potential                  :    33        2.66s   0.202%  ------ ||
|| cell_grid_extract_box_real           :   279        2.95s   0.224%  ------ ||
|| integrals_locpot_mat_els_batch       :    19        2.96s   0.225%  ------ ||
|| swri_metric_mat_eval_swpot           : 49758        3.06s   0.232%  ------ ||
|| ngwf_gradient_batch                  :     1        3.20s   0.243%  ------ ||
|| hfx_populate_swop_cache_sort         :     1        3.34s   0.254%  ------ ||
|| sparse_product                       :  1053        3.49s   0.265%  ------ ||
|| hfx_accum_q_beta                     : 220.8k       3.52s   0.267%  ------ ||
|| density_batch_row_sums               :    32        3.59s   0.273%  ------ ||
|| hfx_calc_expansion_for_q             :  5758        3.70s   0.281%  ------ ||
|| hfx_gradient_term2_qexpand2          :  5758        3.74s   0.284%  ------ ||
|| swri_metric_mat_cheb_expand          : 49758        3.89s   0.295%  ------ ||
|| hamiltonian_energy_components        :     1        4.25s   0.323%  ------ ||
|| cell_grid_deposit_box_real           :   422        5.06s   0.385%  ------ ||
|| hfx_calc_aa_dd_ngwf_prods_in_ppds    :     3        5.80s   0.440%  ------ ||
|| hash_table_free                      :    87        6.31s   0.479%  ------ ||
|| swri_metric_mat_cheb_int_product     : 4.802M       7.30s   0.554%  ------ ||
|| density_fftbox_deposit_to_cell       :   416       10.82s   0.822%  ------ ||
|| linalg_dgesv                         : 14243       11.33s   0.860%  ------ ||
|| remote_unpack_ngwf_no_sphere         : 5.615M      12.31s   0.935%  ------ ||
|| swx_my_ngwf_pair_fitting             :     3       12.41s   0.943%  ------ ||
|| swx_expand_my_ngwf_pairs             :     3       12.41s   0.943%  ------ ||
|| hash_table_purge_[EXPANSIONS]        :     5       12.74s   0.968%  ------ ||
|| hfx_expand_ngwf_pairs                :     3       13.36s   1.015%  ------ ||
|| density_fftbox_interpolate_multiply  :   416       13.56s   1.030%  ------ ||
|| fourier_apply_box                    :  1272       14.79s   1.124%  3.148k ||
|| internal_tile_by_chebs               :   259       15.66s   1.190%  ------ ||
|| swri_metric_mat_main_loop            :     1       16.09s   1.222%  ------ ||
|| swri_metric_mat_oc                   :     1       17.30s   1.314%  ------ ||
|| swri_init_container_stage_2          :     1       17.46s   1.326%  ------ ||
|| hfx_populate_swop_cache_calc         :     1       19.42s   1.475%  ------ ||
|| hfx_calc_aa_dd_ngwf_prod_in_ppd      : 187.4M      22.61s   1.717%  ------ ||
|| potential_apply_to_ngwf_batch        :    19       24.11s   1.831%  ------ ||
|| hfx_populate_swop_cache              :     1       25.56s   1.942%  ------ ||
|| hfx_gradient_term2_part0             :   193       26.55s   2.016%  ------ ||
|| integrals_locpot_dbl_grid            :    19       27.26s   2.070%  ------ ||
|| hfx_contract_over_dkn_cc_expa_get    : 16742       29.09s   2.210%  ------ ||
|| density_batch_interp_deposit         :    32       34.37s   2.611%  ------ ||
|| hfx_all_ad_for_this_b_main           :   186       36.64s   2.783%  ------ ||
|| hfx_all_ad_for_this_b                :   186       36.70s   2.787%  ------ ||
|| hfx_dkn_indep_preparation            :     3       37.68s   2.862%  ------ ||
|| density_on_dbl_grid                  :    32       39.67s   3.013%  ------ ||
|| hfx_gradient_term2_part2             :   450       42.27s   3.211%  ------ ||
|| hamiltonian_lhxc_calculate           :    31       43.54s   3.307%  ------ ||
|| hfx_calc_p_ac                        : 43124       53.83s   4.088%  ------ ||
|| hfx_gradient_term2_part1             :   193       69.61s   5.286%  ------ ||
|| remote_obtain_dkn_block              : 1.936M      77.92s   5.918%  ------ ||
|| hfx_comms_dkn                        :    35      115.20s   8.749%  ------ ||
|| hfx_contract_over_dkn_cc_main        : 16742      117.65s   8.935%  ------ ||
|| hfx_gradient_term2_imbal             :     1      130.83s   9.936%  ------ ||
|| swx_swop_quantity_overlap_ppd_fast   : 14243      150.02s  11.393%  ------ ||
|| hfx_gradient_term2_qexpand           :  5758      153.34s  11.646%  ------ ||
|| hfx_gradient_term2_part3             :   450      158.38s  12.029%  ------ ||
|| hfx_main_work_imbalance              :    32      161.60s  12.273%  ------ ||
|| swx_expansion_2_fast                 : 14243      163.98s  12.454%  ------ ||
|| hfx_contract_over_dkn_cc             :   186      164.12s  12.465%  ------ ||
|| swri_swop_calc_all_in_ppd_fast       : 19.58M     218.41s  16.588%  ------ ||
|| hfx_calc_expansions_bb_cc            : 17274      227.60s  17.286%  ------ ||
|| hfx_gradient_term2                   :     1      427.86s  32.495%  ------ ||
|| hfx_main_ngwf_grad2                  :     1      428.42s  32.538%  ------ ||
|| ngwf_gradient_lnv                    :     1      448.35s  34.051%  ------ ||
|| lnv_denskernel_optimise_cg           :     2      643.68s  48.887%  ------ ||
|| hfx_main                             :    32     1023.27s  77.716%  ------ ||
|| hf_exchange_calculate                :    32     1139.83s  86.567%  ------ ||
|| ngwf_cg_optimise                     :     1     1248.84s  94.847%  ------ ||
|| energy_and_forces                    :     1     1315.16s  99.884%  ------ ||
|| total_time                           :     1     1316.69s 100.000%  ------ ||
================================================================================
==================== AVERAGE TIMINGS FROM ALL PROCS (SELF) =====================
++ TAG                                    #calls    cpu time   %total  Gflops ++
++ hfx_populate_swop_cache              :     1        0.00s   0.000%  ------ ++
++ hfx_determine_my_a_atoms             :     3        0.00s   0.000%  ------ ++
++ hfx_split_pair_list                  :     3        0.00s   0.000%  ------ ++
++ swx_expand_my_ngwf_pairs             :     3        0.00s   0.000%  ------ ++
++ swri_metric_mat_cheb_gen_nodes       :     1        0.00s   0.000%  ------ ++
++ onetep.F90 main loop imbalance       :     1        0.00s   0.000%  ------ ++
++ hfx_determine_my_d_atoms             :     3        0.00s   0.000%  ------ ++
++ hfx_main_comms_imbalance             :    32        0.00s   0.000%  ------ ++
++ onetep.F90 final imbalance           :     1        0.00s   0.000%  ------ ++
++ sparse_set_to_garbage                :    18        0.00s   0.000%  ------ ++
++ swri_metric_mat_dispatch             :  6139        0.00s   0.000%  ------ ++
++ swri_metric_mat_sc                   :     1        0.00s   0.000%  ------ ++
++ swri_metric_mat_wait_req_master      :   279        0.08s   0.006%  ------ ++ (1 procs only)
++ ngwf_gradient_coeffs                 :     1        0.00s   0.000%  ------ ++
++ hfx_all_ad_for_this_b                :   186        0.00s   0.000%  ------ ++
++ hash_table_purge_[VMETRIC]           :     1        0.00s   0.000%  ------ ++
++ hash_table_purge_[TILES]             :     1        0.00s   0.000%  ------ ++
++ hash_table_purge_[TCDKNBLKS_BA]      :     1        0.00s   0.000%  ------ ++
++ hash_table_purge_[DKNBLKS_AB]        :     1        0.00s   0.000%  ------ ++
++ hash_table_purge_[TCDKNBLKS_AB]      :     1        0.00s   0.000%  ------ ++
++ hfx_main_ngwf_grad2                  :     1        0.00s   0.000%  ------ ++
++ hash_table_purge_[ALISTS]            :     4        0.00s   0.000%  ------ ++
++ basis_extract_function_from_box      :    44        0.00s   0.000%  ------ ++
++ hfx_comms_gradient_imbalance         :     2        0.00s   0.000%  ------ ++
++ swri_metric_mat_consistency          :   259        0.00s   0.000%  ------ ++
++ vdwcorrection_calculate_energy       :     1        0.00s   0.000%  ------ ++
++ pseudopotentials_local_on_grid       :     1        0.00s   0.000%  ------ ++
++ hash_table_purge_[XAB]               :    32        0.00s   0.000%  ------ ++
++ sparse_embed_hotelling_invert_embed  :     3        0.00s   0.000%  ------ ++
++ hf_exchange_calculate_imbalance      :    32        0.01s   0.000%  ------ ++
++ ngwfs_initialise_from_radial         :     1        0.01s   0.000%  ------ ++
++ hash_table_purge_[AKETS_DKN_LOC]     :     2        0.01s   0.000%  ------ ++
++ swri_metric_mat_allocs               :     1        0.01s   0.001%  ------ ++
++ pseudopotentials_nonlocal_mat        :     3        0.01s   0.001%  ------ ++
++ hash_table_purge_[COEFFS]            :     4        0.01s   0.001%  ------ ++
++ hfx_determine_ppd_list               :     3        0.01s   0.001%  ------ ++
++ swri_metric_mat_main_loop            :     1        0.01s   0.001%  ------ ++
++ neighbour_list_populate              :     5        0.01s   0.001%  ------ ++
++ hfx_determine_bc_pairs               :     3        0.02s   0.001%  ------ ++
++ hash_table_purge_[DLISTS]            :     4        0.02s   0.001%  ------ ++
++ swri_metric_mat_wait_send            :   259        0.02s   0.001%  ------ ++
++ hash_table_purge_[NGWFS]             :    10        0.02s   0.001%  ------ ++
++ ewald_calculate_energy               :     1        0.03s   0.002%  ------ ++
++ hfx_gradient_term2_qexpand2          :  5758        0.03s   0.002%  ------ ++
++ swri_metric_mat_oc_work_imbalance    :     2        0.03s   0.003%  ------ ++
++ remote_pack_ngwf                     :  2140        0.04s   0.003%  ------ ++
++ hfx_gradient_term2_qexpand           :  5758        0.04s   0.003%  ------ ++
++ hamiltonian_energy_components        :     1        0.05s   0.003%  ------ ++
++ density_init_guess_real              :     1        0.05s   0.004%  ------ ++
++ hfx_main_ngwf_grad1                  :     1        0.05s   0.004%  ------ ++
++ pseudo_make_structure_factor         :     1        0.05s   0.004%  ------ ++
++ hfx_all_ad_for_this_b_store          :   186        0.06s   0.004%  ------ ++
++ swri_metric_mat_home_sws             :     1        0.06s   0.004%  ------ ++
++ hfx_comms_xmatrix_imbalance          :    32        0.06s   0.005%  ------ ++
++ hash_table_list                      :  1247        0.06s   0.005%  ------ ++
++ hartree_on_grid                      :    33        0.07s   0.006%  ------ ++
++ palser_mano_kernel_optimise          :     1        0.09s   0.007%  ------ ++
++ hfx_comms_metric                     :     3        0.11s   0.008%  ------ ++
++ swri_metric_mat_RSH_rotation         :   259        0.13s   0.010%  ------ ++
++ hash_table_purge_[AKETS_DKN_MY]      :     2        0.13s   0.010%  ------ ++
++ hash_table_purge_[SWOP_HITS]         :     1        0.14s   0.010%  ------ ++
++ hash_table_free                      :    87        0.15s   0.011%  ------ ++
++ hfx_comms_xmatrix                    :    32        0.15s   0.011%  ------ ++
++ hfx_gradient_term2_qexpand3          :  5758        0.15s   0.012%  ------ ++
++ hash_table_purge_[PPD_NGWFS_DD]      :     4        0.16s   0.012%  ------ ++
++ swri_init_container_stage_2          :     1        0.16s   0.012%  ------ ++
++ lnv_gradient_norm                    :    16        0.17s   0.013%  ------ ++
++ hfx_determine_alists                 :     3        0.17s   0.013%  ------ ++
++ projectors_func_ovlp_box             :     3        0.18s   0.014%  ------ ++
++ integrals_locpot_dbl_grid            :    19        0.19s   0.014%  ------ ++
++ function_ops_brappd_ketppd           :     3        0.19s   0.015%  ------ ++
++ hfx_gradient_term2                   :     1        0.22s   0.017%  ------ ++
++ swri_metric_mat_oc                   :     1        0.22s   0.017%  ------ ++
++ swri_vmatrixblock_sc                 :  2892        0.24s   0.018%  ------ ++
++ swx_my_ngwf_pair_fitting             :     3        0.24s   0.018%  ------ ++
++ hfx_main                             :    32        0.25s   0.019%  ------ ++
++ hfx_gradient_term2_part3             :   450        0.27s   0.020%  ------ ++
++ basis_copy_function_to_box           :   624        0.27s   0.021%  ------ ++
++ remote_obtain_matrix_block           :  1569        0.29s   0.022%  ------ ++
++ sparse_init                          :     1        0.29s   0.022%  ------ ++
++ swri_metric_mat_wait_req_worker      :   259        0.32s   0.024%  ------ ++ (63 procs only)
++ integrals_kinetic                    :     3        0.34s   0.026%  ------ ++
++ kernel_fix                           :    16        0.36s   0.027%  ------ ++
++ kernel_purify                        :    48        0.37s   0.028%  ------ ++
++ projectors_init_fftbox_recip         :     4        0.39s   0.029%  ------ ++
++ hfx_gradient                         :     2        0.39s   0.030%  ------ ++
++ hfx_determine_a_ppd_list_for_b       :   250        0.41s   0.031%  ------ ++
++ hfx_comms_ngwfs                      :    12        0.42s   0.032%  ------ ++
++ hash_table_purge_[DKNBLKS_CD]        :    32        0.44s   0.033%  ------ ++
++ projectors_gradient_batch            :     1        0.47s   0.036%  ------ ++
++ xc_energy_potential                  :    33        0.49s   0.037%  ------ ++
++ ngwf_gradient_lnv                    :     1        0.52s   0.039%  ------ ++
++ hf_exchange_calculate                :    32        0.56s   0.043%  ------ ++
++ ngwf_gradient_batch                  :     1        0.57s   0.043%  ------ ++
++ internal_tile_by_chebs               :   259        0.64s   0.049%  ------ ++
++ ngwf_cg_optimise                     :     1        0.66s   0.050%  ------ ++
++ ngwf_gradient_build_batch            :     1        0.70s   0.053%  ------ ++
++ fourier_apply_box_pair               :    84        0.71s   0.054% 895.930 ++
++ basis_dot_function_with_box          : 59581        0.72s   0.055%  ------ ++
++ energy_and_force_init_cell           :     1        0.75s   0.057%  ------ ++
++ main_program_(onetep.F90)            :     1        0.77s   0.059%  ------ ++
++ swri_metric_mat_symmetry             :     1        0.88s   0.067%  ------ ++
++ remote_unpack_ngwf                   : 339.0k       0.89s   0.067%  ------ ++
++ hfx_expand_ngwf_pairs                :     3        0.95s   0.072%  ------ ++
++ hfx_determine_dlists                 :     3        1.00s   0.076%  ------ ++
++ lnv_denskernel_optimise_cg           :     2        1.07s   0.081%  ------ ++
++ basis_add_function_to_box            : 103.6k       1.21s   0.092%  ------ ++ (!) overhead: ~  21.9%
++ sparse_trace                         :  1180        1.21s   0.092%  ------ ++
++ hamiltonian_lhxc_calculate           :    31        1.21s   0.092%  ------ ++
++ hash_table_purge_[PPD_PRODUCTS]      :     4        1.30s   0.099%  ------ ++
++ remote_obtain_ngwf                   :  5329        1.39s   0.106%  ------ ++
++ fourier_apply_cell_backward          :   166        1.48s   0.112% 150.963 ++
++ sw_init                              :     1        1.62s   0.123%  ------ ++
++ hash_table_purge_[SWOPS_IN_PPDS]     :     3        1.64s   0.124%  ------ ++
++ swri_build_matrix_2                  :  2795        1.64s   0.124%  ------ ++
++ hfx_grad_ket_dkn_baccum              :     5        1.64s   0.125%  ------ ++
++ hfx_contract_over_dkn_cc_dkn_get     : 16742        1.67s   0.127%  ------ ++ (!) overhead: ~   2.6%
++ hfx_comms_gradient                   :     2        1.67s   0.127%  ------ ++
++ density_on_dbl_grid                  :    32        1.70s   0.129%  ------ ++
++ fourier_apply_cell_forward           :   165        2.07s   0.157% 107.378 ++
++ integrals_locpot_mat_els_batch       :    19        2.38s   0.181%  ------ ++
++ hfx_populate_swop_cache_bookkeeping  :     1        2.53s   0.192%  ------ ++
++ hfx_populate_swop_cache_imbalance    :     2        2.62s   0.199%  ------ ++
++ swx_expansion_2_fast                 : 14243        2.64s   0.200%  ------ ++
++ density_batch_row_sums               :    32        2.68s   0.203%  ------ ++
++ hfx_dkn_indep_preparation            :     3        2.81s   0.214%  ------ ++
++ hfx_calc_expansion_for_q             :  5758        2.84s   0.216%  ------ ++
++ cell_grid_extract_box_real           :   279        2.95s   0.224%  ------ ++
++ swri_metric_mat_eval_swpot           : 49758        3.06s   0.232%  ------ ++ (!) overhead: ~   4.2%
++ hfx_populate_swop_cache_sort         :     1        3.19s   0.242%  ------ ++
++ sparse_product                       :  1053        3.49s   0.265%  ------ ++
++ hfx_accum_q_beta                     : 220.8k       3.52s   0.267%  ------ ++ (!) overhead: ~  16.0%
++ swri_metric_mat_cheb_expand          : 49758        3.89s   0.295%  ------ ++ (!) overhead: ~   3.3%
++ energy_and_forces                    :     1        4.34s   0.330%  ------ ++
++ density_fftbox_interpolate_multiply  :   416        4.83s   0.367%  ------ ++
++ cell_grid_deposit_box_real           :   422        5.06s   0.385%  ------ ++
++ hfx_calc_aa_dd_ngwf_prods_in_ppds    :     3        5.39s   0.410%  ------ ++
++ density_fftbox_deposit_to_cell       :   416        5.77s   0.438%  ------ ++
++ hfx_all_ad_for_this_b_main           :   186        6.75s   0.513%  ------ ++
++ swri_metric_mat_cheb_int_product     : 4.802M       7.30s   0.554%  ------ ++ (!) overhead: ~ 168.1%
++ potential_apply_to_ngwf_batch        :    19       11.22s   0.852%  ------ ++
++ linalg_dgesv                         : 14243       11.33s   0.860%  ------ ++
++ remote_unpack_ngwf_no_sphere         : 5.615M      12.31s   0.935%  ------ ++ (!) overhead: ~ 116.5%
++ hash_table_purge_[EXPANSIONS]        :     5       12.74s   0.968%  ------ ++
++ density_batch_interp_deposit         :    32       13.34s   1.013%  ------ ++
++ hfx_gradient_term2_part0             :   193       14.65s   1.113%  ------ ++
++ fourier_apply_box                    :  1272       14.79s   1.124%  3.148k ++
++ hfx_populate_swop_cache_calc         :     1       15.08s   1.145%  ------ ++
++ hfx_contract_over_dkn_cc             :   186       15.71s   1.194%  ------ ++
++ hfx_gradient_term2_part1             :   193       15.81s   1.200%  ------ ++
++ hfx_calc_aa_dd_ngwf_prod_in_ppd      : 187.4M      22.61s   1.717%  ------ ++ (!) overhead: ~  21.2%
++ hfx_gradient_term2_part2             :   450       26.57s   2.018%  ------ ++
++ hfx_contract_over_dkn_cc_expa_get    : 16742       29.09s   2.210%  ------ ++
++ hfx_comms_dkn                        :    35       37.29s   2.832%  ------ ++
++ hfx_calc_p_ac                        : 43124       53.54s   4.067%  ------ ++
++ swx_swop_quantity_overlap_ppd_fast   : 14243       63.78s   4.844%  ------ ++
++ remote_obtain_dkn_block              : 1.936M      77.92s   5.918%  ------ ++ (!) overhead: ~   6.3%
++ hfx_calc_expansions_bb_cc            : 17274       97.85s   7.431%  ------ ++
++ hfx_contract_over_dkn_cc_main        : 16742      117.65s   8.935%  ------ ++
++ hfx_gradient_term2_imbal             :     1      130.83s   9.936%  ------ ++
++ hfx_main_work_imbalance              :    32      161.60s  12.273%  ------ ++
++ swri_swop_calc_all_in_ppd_fast       : 19.58M     218.41s  16.588%  ------ ++
================================================================================
(!) WARNING: You're wasting precious cycles calling timer. 
             Each pair of timer_clock calls itself cost   2.55 microseconds!
Overhead of generating timer report: 
- 0 ms averaging over threads,
- 43 ms ensuring consistency across MPI ranks,
- 2 ms printing in order.

Job completed: 25-01-2023 12:23 (-0000)

onetep_launcher: ONETEP seems to have finished correctly (zero exit code).
